 Entering Gaussian System, Link 0=g16
 Input=qpp1_h_half_tuned_td_triplet.com
 Output=qpp1_h_half_tuned_td_triplet.log
 Initial command:
 /mnt/gpfs/share/opt/gaussian/g16-A.03/g16/l1.exe "/scratch/qai222/dlx3proj/qpp/data/tunedopt/Gau-13204.inp" -scrdir="/scratch/qai222/dlx3proj/qpp/data/tunedopt/"
 Entering Link 1 = /mnt/gpfs/share/opt/gaussian/g16-A.03/g16/l1.exe PID=     13205.
  
 Copyright (c) 1988,1990,1992,1993,1995,1998,2003,2009,2016,
            Gaussian, Inc.  All Rights Reserved.
  
 This is part of the Gaussian(R) 16 program.  It is based on
 the Gaussian(R) 09 system (copyright 2009, Gaussian, Inc.),
 the Gaussian(R) 03 system (copyright 2003, Gaussian, Inc.),
 the Gaussian(R) 98 system (copyright 1998, Gaussian, Inc.),
 the Gaussian(R) 94 system (copyright 1995, Gaussian, Inc.),
 the Gaussian 92(TM) system (copyright 1992, Gaussian, Inc.),
 the Gaussian 90(TM) system (copyright 1990, Gaussian, Inc.),
 the Gaussian 88(TM) system (copyright 1988, Gaussian, Inc.),
 the Gaussian 86(TM) system (copyright 1986, Carnegie Mellon
 University), and the Gaussian 82(TM) system (copyright 1983,
 Carnegie Mellon University). Gaussian is a federally registered
 trademark of Gaussian, Inc.
  
 This software contains proprietary and confidential information,
 including trade secrets, belonging to Gaussian, Inc.
  
 This software is provided under written license and may be
 used, copied, transmitted, or stored only in accord with that
 written license.
  
 The following legend is applicable only to US Government
 contracts under FAR:
  
                    RESTRICTED RIGHTS LEGEND
  
 Use, reproduction and disclosure by the US Government is
 subject to restrictions as set forth in subparagraphs (a)
 and (c) of the Commercial Computer Software - Restricted
 Rights clause in FAR 52.227-19.
  
 Gaussian, Inc.
 340 Quinnipiac St., Bldg. 40, Wallingford CT 06492
  
  
 ---------------------------------------------------------------
 Warning -- This program may not be used in any manner that
 competes with the business of Gaussian, Inc. or will provide
 assistance to any competitor of Gaussian, Inc.  The licensee
 of this program is prohibited from giving any competitor of
 Gaussian, Inc. access to this program.  By using this program,
 the user acknowledges that Gaussian, Inc. is engaged in the
 business of creating and licensing software in the field of
 computational chemistry and represents and warrants to the
 licensee that it is not a competitor of Gaussian, Inc. and that
 it will not use this program in any manner prohibited above.
 ---------------------------------------------------------------
  

 Cite this work as:
 Gaussian 16, Revision A.03,
 M. J. Frisch, G. W. Trucks, H. B. Schlegel, G. E. Scuseria, 
 M. A. Robb, J. R. Cheeseman, G. Scalmani, V. Barone, 
 G. A. Petersson, H. Nakatsuji, X. Li, M. Caricato, A. V. Marenich, 
 J. Bloino, B. G. Janesko, R. Gomperts, B. Mennucci, H. P. Hratchian, 
 J. V. Ortiz, A. F. Izmaylov, J. L. Sonnenberg, D. Williams-Young, 
 F. Ding, F. Lipparini, F. Egidi, J. Goings, B. Peng, A. Petrone, 
 T. Henderson, D. Ranasinghe, V. G. Zakrzewski, J. Gao, N. Rega, 
 G. Zheng, W. Liang, M. Hada, M. Ehara, K. Toyota, R. Fukuda, 
 J. Hasegawa, M. Ishida, T. Nakajima, Y. Honda, O. Kitao, H. Nakai, 
 T. Vreven, K. Throssell, J. A. Montgomery, Jr., J. E. Peralta, 
 F. Ogliaro, M. J. Bearpark, J. J. Heyd, E. N. Brothers, K. N. Kudin, 
 V. N. Staroverov, T. A. Keith, R. Kobayashi, J. Normand, 
 K. Raghavachari, A. P. Rendell, J. C. Burant, S. S. Iyengar, 
 J. Tomasi, M. Cossi, J. M. Millam, M. Klene, C. Adamo, R. Cammi, 
 J. W. Ochterski, R. L. Martin, K. Morokuma, O. Farkas, 
 J. B. Foresman, and D. J. Fox, Gaussian, Inc., Wallingford CT, 2016.
 
 ******************************************
 Gaussian 16:  ES64L-G16RevA.03 25-Dec-2016
                22-Oct-2018 
 ******************************************
 %chk=qpp1_h_half_tuned_td_triplet.chk
 %oldchk=qpp1_h_half_tuned.chk
 %nprocshared=24
 Will use up to   24 processors via shared memory.
 %mem=50GB
 Copying data from "qpp1_h_half_tuned.chk" to current chk file "qpp1_h_half_tuned_td_triplet.chk"
 IOpt=  2 FromEx=T IUOpen= 4 IOptOp= 5 NList=   0 IFRang= 0 IUIn= 4 IUOut= 2.
 ----------------------------------------------------------------------
 #p td=(triplets,nstates=20) Geom=Checkpoint Guess=Read LC-wPBE/6-31g(d
 ,p) IOP(3/107=0172600000) IOP(3/108=0172600000)
 ----------------------------------------------------------------------
 1/29=2,38=1,172=1/1;
 2/12=2,40=1/2;
 3/5=1,6=6,7=101,11=9,14=-4,25=1,30=1,74=-41,107=172600000,108=172600000,116=-2/1,2,3,8;
 4/5=1/1;
 5/5=2,38=6/2;
 8/6=1,10=2,108=20/1;
 9/41=20,42=1,48=3,70=2/14;
 6/7=2,8=2,9=2,10=2/1;
 99/5=1,9=1/99;
 Leave Link    1 at Mon Oct 22 18:01:57 2018, MaxMem=  6710886400 cpu:              19.9 elap:               0.9
 (Enter /mnt/gpfs/share/opt/gaussian/g16-A.03/g16/l101.exe)
 -------------------------------------------------------------
 Tuning input file generated by awtune with parameters: w01726
 -------------------------------------------------------------
 Structure from the checkpoint file:  "qpp1_h_half_tuned_td_triplet.chk"
 Charge =  0 Multiplicity = 1
 Redundant internal coordinates found in file.  (old form).
 C,0,5.8648404996,0.7168589088,0.0810070845
 C,0,7.1036125867,1.4190073332,0.1607210099
 C,0,7.1035732102,-1.4191478278,-0.1607346073
 C,0,5.8648206175,-0.7169665369,-0.081007347
 C,0,4.643816776,1.4430526439,0.1626101753
 C,0,4.6437767577,-1.4431278674,-0.1625973398
 C,0,4.6687834298,2.8318227554,0.3202154186
 C,0,7.0906365066,2.8210776749,0.3196412075
 H,0,3.7155182632,3.3602619467,0.3802856004
 H,0,8.0436330695,3.3545381267,0.3803731445
 C,0,7.0905582153,-2.8212178168,-0.3196547332
 C,0,4.6687048411,-2.8318986377,-0.3202029465
 H,0,8.0435399658,-3.3547035544,-0.3803969503
 H,0,3.7154250186,-3.3603125592,-0.3802629717
 C,0,3.3677251698,-0.716268419,-0.0795370979
 C,0,3.3677449989,0.7162270456,0.0795637373
 C,0,1.0733360484,-0.7107062115,-0.0749347831
 N,0,2.2342863787,-1.4111514943,-0.1543452735
 N,0,2.2343254021,1.4111401082,0.1543842579
 C,0,1.0733557046,0.7107255004,0.0749863714
 C,0,-0.1710962228,1.3910118797,0.1598155242
 C,0,-0.1711347746,-1.3909597761,-0.1597503468
 C,0,-1.3808317945,-0.7182015565,-0.0913715066
 C,0,-1.3808117614,0.718285609,0.0914502712
 H,0,-0.1454546909,2.4709362692,0.3232044304
 H,0,-0.1455235067,-2.4708847696,-0.3231400543
 C,0,-4.9378133277,3.1153182722,0.5965606385
 C,0,-3.9431008126,3.4899543729,-0.3475390765
 C,0,-2.8107398164,2.6909088085,-0.5075143629
 C,0,-2.6359824489,1.5096492422,0.2473660356
 C,0,-3.622453263,1.1512702223,1.1698649662
 C,0,-4.7618796511,1.9494978541,1.3451200954
 H,0,-2.0466239133,2.9644091451,-1.2367745029
 H,0,-3.5066626257,0.2451413363,1.7671946991
 H,0,-5.5130594575,1.6508890473,2.0773250928
 C,0,-3.622496319,-1.1511270452,-1.1697615175
 C,0,-2.636025346,-1.5095316271,-0.2472727461
 C,0,-2.8108055683,-2.690786543,0.5076097916
 C,0,-3.9431924091,-3.4897987827,0.3476514943
 C,0,-4.9379055517,-3.1151362501,-0.5964371812
 C,0,-4.7619455748,-1.949324745,-1.3450042644
 H,0,-3.5066870596,-0.2450028107,-1.7670946722
 H,0,-2.0466861944,-2.9643094978,1.2368577965
 H,0,-5.5131213016,-1.6507006762,-2.0772072083
 O,0,-6.0089468121,-3.9575872707,-0.6834692634
 O,0,-4.1999109247,-4.638706139,1.0409357196
 C,0,-7.0218081038,-3.613561492,-1.6185661071
 C,0,-3.222834007,-5.0515423518,1.9861127805
 H,0,-6.632721646,-3.587096341,-2.6522837635
 H,0,-7.7835576485,-4.3997406384,-1.539657323
 H,0,-7.4815025507,-2.6367345696,-1.3834554959
 H,0,-3.6028426124,-5.98352507,2.4237435683
 H,0,-2.2462970814,-5.2461438627,1.5073617946
 H,0,-3.0856975434,-4.303342346,2.7875626257
 O,0,-4.1997982912,4.6388661415,-1.0408236697
 O,0,-6.0088343903,3.9577943547,0.6836001897
 C,0,-7.0216048168,3.6138954002,1.6188419828
 C,0,-3.2226524006,5.0517544019,-1.9859069533
 H,0,-7.4814460003,2.6371185309,1.383807699
 H,0,-6.6323758656,3.5873973739,2.6525045984
 H,0,-7.7832765485,4.4001594292,1.5400282326
 H,0,-3.6025976696,5.9837965428,-2.4234662149
 H,0,-2.2461335236,5.2462641075,-1.5070828042
 H,0,-3.0855050665,4.303629668,-2.7874256563
 C,0,5.8887008435,3.5167523711,0.3983964712
 H,0,5.8934074764,4.6024947926,0.5219843319
 C,0,5.8886032506,-3.5168606125,-0.3983971437
 H,0,5.893279716,-4.602603144,-0.5219851636
 C,0,8.3361841898,0.6770766793,0.0767444063
 H,0,9.2779588444,1.2295208052,0.139360686
 C,0,8.3361653945,-0.6772498756,-0.0767712322
 H,0,9.277924719,-1.2297189835,-0.1393976492
 Recover connectivity data from disk.
 ITRead=  0  0  0  0  0  0  0  0  0  0  0  0  0  0  0  0  0  0  0  0
 ITRead=  0  0  0  0  0  0  0  0  0  0  0  0  0  0  0  0  0  0  0  0
 ITRead=  0  0  0  0  0  0  0  0  0  0  0  0  0  0  0  0  0  0  0  0
 ITRead=  0  0  0  0  0  0  0  0  0  0  0  0
 MicOpt= -1 -1 -1 -1 -1 -1 -1 -1 -1 -1 -1 -1 -1 -1 -1 -1 -1 -1 -1 -1
 MicOpt= -1 -1 -1 -1 -1 -1 -1 -1 -1 -1 -1 -1 -1 -1 -1 -1 -1 -1 -1 -1
 MicOpt= -1 -1 -1 -1 -1 -1 -1 -1 -1 -1 -1 -1 -1 -1 -1 -1 -1 -1 -1 -1
 MicOpt= -1 -1 -1 -1 -1 -1 -1 -1 -1 -1 -1 -1
                           ----------------------------
                           !    Current Parameters    !
                           ! (Angstroms and Degrees)  !
 --------------------------                            --------------------------
 ! Name  Definition              Value                                          !
 --------------------------------------------------------------------------------
 ! R1    R(1,2)                  1.4262                                         !
 ! R2    R(1,4)                  1.4429                                         !
 ! R3    R(1,5)                  1.423                                          !
 ! R4    R(2,8)                  1.4111                                         !
 ! R5    R(2,69)                 1.4411                                         !
 ! R6    R(3,4)                  1.4262                                         !
 ! R7    R(3,11)                 1.4111                                         !
 ! R8    R(3,71)                 1.4411                                         !
 ! R9    R(4,6)                  1.423                                          !
 ! R10   R(5,7)                  1.3979                                         !
 ! R11   R(5,16)                 1.4709                                         !
 ! R12   R(6,12)                 1.3979                                         !
 ! R13   R(6,15)                 1.4709                                         !
 ! R14   R(7,9)                  1.0916                                         !
 ! R15   R(7,65)                 1.4012                                         !
 ! R16   R(8,10)                 1.0938                                         !
 ! R17   R(8,65)                 1.391                                          !
 ! R18   R(11,13)                1.0938                                         !
 ! R19   R(11,67)                1.391                                          !
 ! R20   R(12,14)                1.0916                                         !
 ! R21   R(12,67)                1.4012                                         !
 ! R22   R(15,16)                1.4413                                         !
 ! R23   R(15,18)                1.3316                                         !
 ! R24   R(16,19)                1.3316                                         !
 ! R25   R(17,18)                1.3582                                         !
 ! R26   R(17,20)                1.4293                                         !
 ! R27   R(17,22)                1.4208                                         !
 ! R28   R(19,20)                1.3582                                         !
 ! R29   R(20,21)                1.4208                                         !
 ! R30   R(21,24)                1.3859                                         !
 ! R31   R(21,25)                1.0925                                         !
 ! R32   R(22,23)                1.3859                                         !
 ! R33   R(22,26)                1.0925                                         !
 ! R34   R(23,24)                1.4481                                         !
 ! R35   R(23,37)                1.492                                          !
 ! R36   R(24,30)                1.492                                          !
 ! R37   R(27,28)                1.4217                                         !
 ! R38   R(27,32)                1.3966                                         !
 ! R39   R(27,56)                1.3654                                         !
 ! R40   R(28,29)                1.3951                                         !
 ! R41   R(28,55)                1.3662                                         !
 ! R42   R(29,30)                1.4127                                         !
 ! R43   R(29,33)                1.0911                                         !
 ! R44   R(30,31)                1.3973                                         !
 ! R45   R(31,32)                1.4022                                         !
 ! R46   R(31,34)                1.0915                                         !
 ! R47   R(32,35)                1.0907                                         !
 ! R48   R(36,37)                1.3973                                         !
 ! R49   R(36,41)                1.4022                                         !
 ! R50   R(36,42)                1.0915                                         !
 ! R51   R(37,38)                1.4127                                         !
 ! R52   R(38,39)                1.3951                                         !
 ! R53   R(38,43)                1.0911                                         !
 ! R54   R(39,40)                1.4217                                         !
 ! R55   R(39,46)                1.3662                                         !
 ! R56   R(40,41)                1.3966                                         !
 ! R57   R(40,45)                1.3654                                         !
 ! R58   R(41,44)                1.0907                                         !
 ! R59   R(45,47)                1.4208                                         !
 ! R60   R(46,48)                1.4207                                         !
 ! R61   R(47,49)                1.1048                                         !
 ! R62   R(47,50)                1.0975                                         !
 ! R63   R(47,51)                1.1049                                         !
 ! R64   R(48,52)                1.0975                                         !
 ! R65   R(48,53)                1.1049                                         !
 ! R66   R(48,54)                1.105                                          !
 ! R67   R(55,58)                1.4207                                         !
 ! R68   R(56,57)                1.4208                                         !
 ! R69   R(57,59)                1.1049                                         !
 ! R70   R(57,60)                1.1048                                         !
 ! R71   R(57,61)                1.0975                                         !
 ! R72   R(58,62)                1.0975                                         !
 ! R73   R(58,63)                1.1049                                         !
 ! R74   R(58,64)                1.105                                          !
 ! R75   R(65,66)                1.0928                                         !
 ! R76   R(67,68)                1.0928                                         !
 ! R77   R(69,70)                1.0936                                         !
 ! R78   R(69,71)                1.363                                          !
 ! R79   R(71,72)                1.0936                                         !
 ! A1    A(2,1,4)              119.7034                                         !
 ! A2    A(2,1,5)              119.3975                                         !
 ! A3    A(4,1,5)              120.8991                                         !
 ! A4    A(1,2,8)              119.1758                                         !
 ! A5    A(1,2,69)             119.0907                                         !
 ! A6    A(8,2,69)             121.7336                                         !
 ! A7    A(4,3,11)             119.1758                                         !
 ! A8    A(4,3,71)             119.0907                                         !
 ! A9    A(11,3,71)            121.7336                                         !
 ! A10   A(1,4,3)              119.7034                                         !
 ! A11   A(1,4,6)              120.8991                                         !
 ! A12   A(3,4,6)              119.3975                                         !
 ! A13   A(1,5,7)              119.8765                                         !
 ! A14   A(1,5,16)             119.2751                                         !
 ! A15   A(7,5,16)             120.8484                                         !
 ! A16   A(4,6,12)             119.8765                                         !
 ! A17   A(4,6,15)             119.2751                                         !
 ! A18   A(12,6,15)            120.8484                                         !
 ! A19   A(5,7,9)              118.1345                                         !
 ! A20   A(5,7,65)             120.4942                                         !
 ! A21   A(9,7,65)             121.3713                                         !
 ! A22   A(2,8,10)             118.8695                                         !
 ! A23   A(2,8,65)             120.7474                                         !
 ! A24   A(10,8,65)            120.3832                                         !
 ! A25   A(3,11,13)            118.8695                                         !
 ! A26   A(3,11,67)            120.7474                                         !
 ! A27   A(13,11,67)           120.3832                                         !
 ! A28   A(6,12,14)            118.1345                                         !
 ! A29   A(6,12,67)            120.4942                                         !
 ! A30   A(14,12,67)           121.3713                                         !
 ! A31   A(6,15,16)            119.8257                                         !
 ! A32   A(6,15,18)            118.515                                          !
 ! A33   A(16,15,18)           121.6593                                         !
 ! A34   A(5,16,15)            119.8257                                         !
 ! A35   A(5,16,19)            118.515                                          !
 ! A36   A(15,16,19)           121.6593                                         !
 ! A37   A(18,17,20)           121.2644                                         !
 ! A38   A(18,17,22)           119.8865                                         !
 ! A39   A(20,17,22)           118.8434                                         !
 ! A40   A(15,18,17)           117.0753                                         !
 ! A41   A(16,19,20)           117.0753                                         !
 ! A42   A(17,20,19)           121.2644                                         !
 ! A43   A(17,20,21)           118.8434                                         !
 ! A44   A(19,20,21)           119.8865                                         !
 ! A45   A(20,21,24)           121.9505                                         !
 ! A46   A(20,21,25)           117.4944                                         !
 ! A47   A(24,21,25)           120.5099                                         !
 ! A48   A(17,22,23)           121.9505                                         !
 ! A49   A(17,22,26)           117.4944                                         !
 ! A50   A(23,22,26)           120.5099                                         !
 ! A51   A(22,23,24)           119.1943                                         !
 ! A52   A(22,23,37)           118.1458                                         !
 ! A53   A(24,23,37)           122.6392                                         !
 ! A54   A(21,24,23)           119.1943                                         !
 ! A55   A(21,24,30)           118.1458                                         !
 ! A56   A(23,24,30)           122.6392                                         !
 ! A57   A(28,27,32)           119.1947                                         !
 ! A58   A(28,27,56)           115.3759                                         !
 ! A59   A(32,27,56)           125.4292                                         !
 ! A60   A(27,28,29)           119.5464                                         !
 ! A61   A(27,28,55)           115.2856                                         !
 ! A62   A(29,28,55)           125.1675                                         !
 ! A63   A(28,29,30)           121.2013                                         !
 ! A64   A(28,29,33)           120.0993                                         !
 ! A65   A(30,29,33)           118.6925                                         !
 ! A66   A(24,30,29)           119.4549                                         !
 ! A67   A(24,30,31)           121.7938                                         !
 ! A68   A(29,30,31)           118.6782                                         !
 ! A69   A(30,31,32)           120.6755                                         !
 ! A70   A(30,31,34)           119.9558                                         !
 ! A71   A(32,31,34)           119.3676                                         !
 ! A72   A(27,32,31)           120.7026                                         !
 ! A73   A(27,32,35)           120.107                                          !
 ! A74   A(31,32,35)           119.1903                                         !
 ! A75   A(37,36,41)           120.6755                                         !
 ! A76   A(37,36,42)           119.9558                                         !
 ! A77   A(41,36,42)           119.3676                                         !
 ! A78   A(23,37,36)           121.7938                                         !
 ! A79   A(23,37,38)           119.4549                                         !
 ! A80   A(36,37,38)           118.6782                                         !
 ! A81   A(37,38,39)           121.2013                                         !
 ! A82   A(37,38,43)           118.6925                                         !
 ! A83   A(39,38,43)           120.0993                                         !
 ! A84   A(38,39,40)           119.5464                                         !
 ! A85   A(38,39,46)           125.1675                                         !
 ! A86   A(40,39,46)           115.2856                                         !
 ! A87   A(39,40,41)           119.1948                                         !
 ! A88   A(39,40,45)           115.3759                                         !
 ! A89   A(41,40,45)           125.4292                                         !
 ! A90   A(36,41,40)           120.7026                                         !
 ! A91   A(36,41,44)           119.1903                                         !
 ! A92   A(40,41,44)           120.107                                          !
 ! A93   A(40,45,47)           116.8553                                         !
 ! A94   A(39,46,48)           116.9188                                         !
 ! A95   A(45,47,49)           111.7485                                         !
 ! A96   A(45,47,50)           105.9036                                         !
 ! A97   A(45,47,51)           111.7539                                         !
 ! A98   A(49,47,50)           109.1991                                         !
 ! A99   A(49,47,51)           108.9314                                         !
 ! A100  A(50,47,51)           109.2218                                         !
 ! A101  A(46,48,52)           105.8971                                         !
 ! A102  A(46,48,53)           111.7627                                         !
 ! A103  A(46,48,54)           111.7855                                         !
 ! A104  A(52,48,53)           109.2233                                         !
 ! A105  A(52,48,54)           109.1934                                         !
 ! A106  A(53,48,54)           108.8967                                         !
 ! A107  A(28,55,58)           116.9188                                         !
 ! A108  A(27,56,57)           116.8553                                         !
 ! A109  A(56,57,59)           111.754                                          !
 ! A110  A(56,57,60)           111.7484                                         !
 ! A111  A(56,57,61)           105.9036                                         !
 ! A112  A(59,57,60)           108.9314                                         !
 ! A113  A(59,57,61)           109.2216                                         !
 ! A114  A(60,57,61)           109.1993                                         !
 ! A115  A(55,58,62)           105.8971                                         !
 ! A116  A(55,58,63)           111.7626                                         !
 ! A117  A(55,58,64)           111.7855                                         !
 ! A118  A(62,58,63)           109.2235                                         !
 ! A119  A(62,58,64)           109.1932                                         !
 ! A120  A(63,58,64)           108.8967                                         !
 ! A121  A(7,65,8)             120.3087                                         !
 ! A122  A(7,65,66)            119.7176                                         !
 ! A123  A(8,65,66)            119.9737                                         !
 ! A124  A(11,67,12)           120.3087                                         !
 ! A125  A(11,67,68)           119.9737                                         !
 ! A126  A(12,67,68)           119.7176                                         !
 ! A127  A(2,69,70)            118.2376                                         !
 ! A128  A(2,69,71)            121.2059                                         !
 ! A129  A(70,69,71)           120.5565                                         !
 ! A130  A(3,71,69)            121.2059                                         !
 ! A131  A(3,71,72)            118.2376                                         !
 ! A132  A(69,71,72)           120.5565                                         !
 ! D1    D(4,1,2,8)           -179.977                                          !
 ! D2    D(4,1,2,69)             0.0233                                         !
 ! D3    D(5,1,2,8)              0.0268                                         !
 ! D4    D(5,1,2,69)          -179.9729                                         !
 ! D5    D(2,1,4,3)             -0.0349                                         !
 ! D6    D(2,1,4,6)            179.9612                                         !
 ! D7    D(5,1,4,3)            179.9612                                         !
 ! D8    D(5,1,4,6)             -0.0427                                         !
 ! D9    D(2,1,5,7)             -0.0355                                         !
 ! D10   D(2,1,5,16)           179.9763                                         !
 ! D11   D(4,1,5,7)            179.9684                                         !
 ! D12   D(4,1,5,16)            -0.0198                                         !
 ! D13   D(1,2,8,10)           179.99                                           !
 ! D14   D(1,2,8,65)             0.0012                                         !
 ! D15   D(69,2,8,10)           -0.0103                                         !
 ! D16   D(69,2,8,65)         -179.9991                                         !
 ! D17   D(1,2,69,70)          179.9942                                         !
 ! D18   D(1,2,69,71)            0.0                                            !
 ! D19   D(8,2,69,70)           -0.0055                                         !
 ! D20   D(8,2,69,71)         -179.9997                                         !
 ! D21   D(11,3,4,1)          -179.977                                          !
 ! D22   D(11,3,4,6)             0.0268                                         !
 ! D23   D(71,3,4,1)             0.0233                                         !
 ! D24   D(71,3,4,6)          -179.9729                                         !
 ! D25   D(4,3,11,13)          179.99                                           !
 ! D26   D(4,3,11,67)            0.0012                                         !
 ! D27   D(71,3,11,13)          -0.0103                                         !
 ! D28   D(71,3,11,67)        -179.9991                                         !
 ! D29   D(4,3,71,69)            0.0                                            !
 ! D30   D(4,3,71,72)          179.9942                                         !
 ! D31   D(11,3,71,69)        -179.9997                                         !
 ! D32   D(11,3,71,72)          -0.0055                                         !
 ! D33   D(1,4,6,12)           179.9684                                         !
 ! D34   D(1,4,6,15)            -0.0198                                         !
 ! D35   D(3,4,6,12)            -0.0355                                         !
 ! D36   D(3,4,6,15)           179.9763                                         !
 ! D37   D(1,5,7,9)           -179.9567                                         !
 ! D38   D(1,5,7,65)             0.0161                                         !
 ! D39   D(16,5,7,9)             0.0313                                         !
 ! D40   D(16,5,7,65)         -179.9959                                         !
 ! D41   D(1,5,16,15)            0.1454                                         !
 ! D42   D(1,5,16,19)         -179.8401                                         !
 ! D43   D(7,5,16,15)         -179.8427                                         !
 ! D44   D(7,5,16,19)            0.1718                                         !
 ! D45   D(4,6,12,14)         -179.9567                                         !
 ! D46   D(4,6,12,67)            0.0161                                         !
 ! D47   D(15,6,12,14)           0.0313                                         !
 ! D48   D(15,6,12,67)        -179.9959                                         !
 ! D49   D(4,6,15,16)            0.1454                                         !
 ! D50   D(4,6,15,18)         -179.8401                                         !
 ! D51   D(12,6,15,16)        -179.8427                                         !
 ! D52   D(12,6,15,18)           0.1719                                         !
 ! D53   D(5,7,65,8)             0.0123                                         !
 ! D54   D(5,7,65,66)         -179.9774                                         !
 ! D55   D(9,7,65,8)           179.9842                                         !
 ! D56   D(9,7,65,66)           -0.0055                                         !
 ! D57   D(2,8,65,7)            -0.021                                          !
 ! D58   D(2,8,65,66)          179.9687                                         !
 ! D59   D(10,8,65,7)          179.9903                                         !
 ! D60   D(10,8,65,66)          -0.02                                           !
 ! D61   D(3,11,67,12)          -0.021                                          !
 ! D62   D(3,11,67,68)         179.9686                                         !
 ! D63   D(13,11,67,12)        179.9903                                         !
 ! D64   D(13,11,67,68)         -0.02                                           !
 ! D65   D(6,12,67,11)           0.0123                                         !
 ! D66   D(6,12,67,68)        -179.9774                                         !
 ! D67   D(14,12,67,11)        179.9842                                         !
 ! D68   D(14,12,67,68)         -0.0055                                         !
 ! D69   D(6,15,16,5)           -0.2076                                         !
 ! D70   D(6,15,16,19)         179.7774                                         !
 ! D71   D(18,15,16,5)         179.7774                                         !
 ! D72   D(18,15,16,19)         -0.2376                                         !
 ! D73   D(6,15,18,17)        -179.9766                                         !
 ! D74   D(16,15,18,17)          0.0382                                         !
 ! D75   D(5,16,19,20)        -179.9766                                         !
 ! D76   D(15,16,19,20)          0.0382                                         !
 ! D77   D(20,17,18,15)          0.3325                                         !
 ! D78   D(22,17,18,15)        179.4537                                         !
 ! D79   D(18,17,20,19)         -0.5427                                         !
 ! D80   D(18,17,20,21)       -179.6728                                         !
 ! D81   D(22,17,20,19)       -179.6728                                         !
 ! D82   D(22,17,20,21)          1.1971                                         !
 ! D83   D(18,17,22,23)       -179.633                                          !
 ! D84   D(18,17,22,26)         -2.069                                          !
 ! D85   D(20,17,22,23)         -0.4906                                         !
 ! D86   D(20,17,22,26)        177.0734                                         !
 ! D87   D(16,19,20,17)          0.3325                                         !
 ! D88   D(16,19,20,21)        179.4537                                         !
 ! D89   D(17,20,21,24)         -0.4906                                         !
 ! D90   D(17,20,21,25)        177.0734                                         !
 ! D91   D(19,20,21,24)       -179.6329                                         !
 ! D92   D(19,20,21,25)         -2.0689                                         !
 ! D93   D(20,21,24,23)         -0.9193                                         !
 ! D94   D(20,21,24,30)        177.4693                                         !
 ! D95   D(25,21,24,23)       -178.4111                                         !
 ! D96   D(25,21,24,30)         -0.0225                                         !
 ! D97   D(17,22,23,24)         -0.9192                                         !
 ! D98   D(17,22,23,37)        177.4693                                         !
 ! D99   D(26,22,23,24)       -178.411                                          !
 ! D100  D(26,22,23,37)         -0.0225                                         !
 ! D101  D(22,23,24,21)          1.6207                                         !
 ! D102  D(22,23,24,30)       -176.692                                          !
 ! D103  D(37,23,24,21)       -176.692                                          !
 ! D104  D(37,23,24,30)          4.9954                                         !
 ! D105  D(22,23,37,36)       -127.8277                                         !
 ! D106  D(22,23,37,38)         49.0196                                         !
 ! D107  D(24,23,37,36)         50.5017                                         !
 ! D108  D(24,23,37,38)       -132.651                                          !
 ! D109  D(21,24,30,29)         49.0196                                         !
 ! D110  D(21,24,30,31)       -127.8278                                         !
 ! D111  D(23,24,30,29)       -132.651                                          !
 ! D112  D(23,24,30,31)         50.5016                                         !
 ! D113  D(32,27,28,29)         -0.1369                                         !
 ! D114  D(32,27,28,55)        179.6281                                         !
 ! D115  D(56,27,28,29)        179.985                                          !
 ! D116  D(56,27,28,55)         -0.25                                           !
 ! D117  D(28,27,32,31)         -0.1963                                         !
 ! D118  D(28,27,32,35)        179.6743                                         !
 ! D119  D(56,27,32,31)        179.6685                                         !
 ! D120  D(56,27,32,35)         -0.4609                                         !
 ! D121  D(28,27,56,57)       -179.9358                                         !
 ! D122  D(32,27,56,57)          0.1948                                         !
 ! D123  D(27,28,29,30)          0.3388                                         !
 ! D124  D(27,28,29,33)        179.3701                                         !
 ! D125  D(55,28,29,30)       -179.4013                                         !
 ! D126  D(55,28,29,33)         -0.3699                                         !
 ! D127  D(27,28,55,58)        179.4865                                         !
 ! D128  D(29,28,55,58)         -0.7637                                         !
 ! D129  D(28,29,30,24)       -177.1491                                         !
 ! D130  D(28,29,30,31)         -0.2032                                         !
 ! D131  D(33,29,30,24)          3.8062                                         !
 ! D132  D(33,29,30,31)       -179.2479                                         !
 ! D133  D(24,30,31,32)        176.7366                                         !
 ! D134  D(24,30,31,34)         -2.8675                                         !
 ! D135  D(29,30,31,32)         -0.1345                                         !
 ! D136  D(29,30,31,34)       -179.7385                                         !
 ! D137  D(30,31,32,27)          0.3354                                         !
 ! D138  D(30,31,32,35)       -179.5364                                         !
 ! D139  D(34,31,32,27)        179.9417                                         !
 ! D140  D(34,31,32,35)          0.0699                                         !
 ! D141  D(41,36,37,23)        176.7365                                         !
 ! D142  D(41,36,37,38)         -0.1345                                         !
 ! D143  D(42,36,37,23)         -2.8674                                         !
 ! D144  D(42,36,37,38)       -179.7384                                         !
 ! D145  D(37,36,41,40)          0.3357                                         !
 ! D146  D(37,36,41,44)       -179.536                                          !
 ! D147  D(42,36,41,40)        179.9419                                         !
 ! D148  D(42,36,41,44)          0.0702                                         !
 ! D149  D(23,37,38,39)       -177.1493                                         !
 ! D150  D(23,37,38,43)          3.806                                          !
 ! D151  D(36,37,38,39)         -0.2035                                         !
 ! D152  D(36,37,38,43)       -179.2482                                         !
 ! D153  D(37,38,39,40)          0.339                                          !
 ! D154  D(37,38,39,46)       -179.4015                                         !
 ! D155  D(43,38,39,40)        179.3704                                         !
 ! D156  D(43,38,39,46)         -0.3701                                         !
 ! D157  D(38,39,40,41)         -0.1368                                         !
 ! D158  D(38,39,40,45)        179.9844                                         !
 ! D159  D(46,39,40,41)        179.6286                                         !
 ! D160  D(46,39,40,45)         -0.2501                                         !
 ! D161  D(38,39,46,48)         -0.7565                                         !
 ! D162  D(40,39,46,48)        179.4932                                         !
 ! D163  D(39,40,41,36)         -0.1967                                         !
 ! D164  D(39,40,41,44)        179.6738                                         !
 ! D165  D(45,40,41,36)        179.6688                                         !
 ! D166  D(45,40,41,44)         -0.4606                                         !
 ! D167  D(39,40,45,47)       -179.9444                                         !
 ! D168  D(41,40,45,47)          0.1855                                         !
 ! D169  D(40,45,47,49)         61.2347                                         !
 ! D170  D(40,45,47,50)       -179.9616                                         !
 ! D171  D(40,45,47,51)        -61.1276                                         !
 ! D172  D(39,46,48,52)       -179.501                                          !
 ! D173  D(39,46,48,53)        -60.6644                                         !
 ! D174  D(39,46,48,54)         61.6861                                         !
 ! D175  D(28,55,58,62)       -179.4944                                         !
 ! D176  D(28,55,58,63)        -60.6576                                         !
 ! D177  D(28,55,58,64)         61.6929                                         !
 ! D178  D(27,56,57,59)        -61.1364                                         !
 ! D179  D(27,56,57,60)         61.2259                                         !
 ! D180  D(27,56,57,61)       -179.9703                                         !
 ! D181  D(2,69,71,3)           -0.0118                                         !
 ! D182  D(2,69,71,72)         179.9942                                         !
 ! D183  D(70,69,71,3)         179.9942                                         !
 ! D184  D(70,69,71,72)          0.0001                                         !
 --------------------------------------------------------------------------------
 NAtoms=     72 NQM=       72 NQMF=       0 NMMI=      0 NMMIF=      0
                NMic=       0 NMicF=      0.
                    Isotopes and Nuclear Properties:
 (Nuclear quadrupole moments (NQMom) in fm**2, nuclear magnetic moments (NMagM)
  in nuclear magnetons)

  Atom         1           2           3           4           5           6           7           8           9          10
 IAtWgt=          12          12          12          12          12          12          12          12           1           1
 AtmWgt=  12.0000000  12.0000000  12.0000000  12.0000000  12.0000000  12.0000000  12.0000000  12.0000000   1.0078250   1.0078250
 NucSpn=           0           0           0           0           0           0           0           0           1           1
 AtZEff=   3.6000000   3.6000000   3.6000000   3.6000000   3.6000000   3.6000000   3.6000000   3.6000000   1.0000000   1.0000000
 NQMom=    0.0000000   0.0000000   0.0000000   0.0000000   0.0000000   0.0000000   0.0000000   0.0000000   0.0000000   0.0000000
 NMagM=    0.0000000   0.0000000   0.0000000   0.0000000   0.0000000   0.0000000   0.0000000   0.0000000   2.7928460   2.7928460
 AtZNuc=   6.0000000   6.0000000   6.0000000   6.0000000   6.0000000   6.0000000   6.0000000   6.0000000   1.0000000   1.0000000

  Atom        11          12          13          14          15          16          17          18          19          20
 IAtWgt=          12          12           1           1          12          12          12          14          14          12
 AtmWgt=  12.0000000  12.0000000   1.0078250   1.0078250  12.0000000  12.0000000  12.0000000  14.0030740  14.0030740  12.0000000
 NucSpn=           0           0           1           1           0           0           0           2           2           0
 AtZEff=   3.6000000   3.6000000   1.0000000   1.0000000   3.6000000   3.6000000   3.6000000   4.5500000   4.5500000   3.6000000
 NQMom=    0.0000000   0.0000000   0.0000000   0.0000000   0.0000000   0.0000000   0.0000000   2.0440000   2.0440000   0.0000000
 NMagM=    0.0000000   0.0000000   2.7928460   2.7928460   0.0000000   0.0000000   0.0000000   0.4037610   0.4037610   0.0000000
 AtZNuc=   6.0000000   6.0000000   1.0000000   1.0000000   6.0000000   6.0000000   6.0000000   7.0000000   7.0000000   6.0000000

  Atom        21          22          23          24          25          26          27          28          29          30
 IAtWgt=          12          12          12          12           1           1          12          12          12          12
 AtmWgt=  12.0000000  12.0000000  12.0000000  12.0000000   1.0078250   1.0078250  12.0000000  12.0000000  12.0000000  12.0000000
 NucSpn=           0           0           0           0           1           1           0           0           0           0
 AtZEff=   3.6000000   3.6000000   3.6000000   3.6000000   1.0000000   1.0000000   3.6000000   3.6000000   3.6000000   3.6000000
 NQMom=    0.0000000   0.0000000   0.0000000   0.0000000   0.0000000   0.0000000   0.0000000   0.0000000   0.0000000   0.0000000
 NMagM=    0.0000000   0.0000000   0.0000000   0.0000000   2.7928460   2.7928460   0.0000000   0.0000000   0.0000000   0.0000000
 AtZNuc=   6.0000000   6.0000000   6.0000000   6.0000000   1.0000000   1.0000000   6.0000000   6.0000000   6.0000000   6.0000000

  Atom        31          32          33          34          35          36          37          38          39          40
 IAtWgt=          12          12           1           1           1          12          12          12          12          12
 AtmWgt=  12.0000000  12.0000000   1.0078250   1.0078250   1.0078250  12.0000000  12.0000000  12.0000000  12.0000000  12.0000000
 NucSpn=           0           0           1           1           1           0           0           0           0           0
 AtZEff=   3.6000000   3.6000000   1.0000000   1.0000000   1.0000000   3.6000000   3.6000000   3.6000000   3.6000000   3.6000000
 NQMom=    0.0000000   0.0000000   0.0000000   0.0000000   0.0000000   0.0000000   0.0000000   0.0000000   0.0000000   0.0000000
 NMagM=    0.0000000   0.0000000   2.7928460   2.7928460   2.7928460   0.0000000   0.0000000   0.0000000   0.0000000   0.0000000
 AtZNuc=   6.0000000   6.0000000   1.0000000   1.0000000   1.0000000   6.0000000   6.0000000   6.0000000   6.0000000   6.0000000

  Atom        41          42          43          44          45          46          47          48          49          50
 IAtWgt=          12           1           1           1          16          16          12          12           1           1
 AtmWgt=  12.0000000   1.0078250   1.0078250   1.0078250  15.9949146  15.9949146  12.0000000  12.0000000   1.0078250   1.0078250
 NucSpn=           0           1           1           1           0           0           0           0           1           1
 AtZEff=   3.6000000   1.0000000   1.0000000   1.0000000   5.6000000   5.6000000   3.6000000   3.6000000   1.0000000   1.0000000
 NQMom=    0.0000000   0.0000000   0.0000000   0.0000000   0.0000000   0.0000000   0.0000000   0.0000000   0.0000000   0.0000000
 NMagM=    0.0000000   2.7928460   2.7928460   2.7928460   0.0000000   0.0000000   0.0000000   0.0000000   2.7928460   2.7928460
 AtZNuc=   6.0000000   1.0000000   1.0000000   1.0000000   8.0000000   8.0000000   6.0000000   6.0000000   1.0000000   1.0000000

  Atom        51          52          53          54          55          56          57          58          59          60
 IAtWgt=           1           1           1           1          16          16          12          12           1           1
 AtmWgt=   1.0078250   1.0078250   1.0078250   1.0078250  15.9949146  15.9949146  12.0000000  12.0000000   1.0078250   1.0078250
 NucSpn=           1           1           1           1           0           0           0           0           1           1
 AtZEff=   1.0000000   1.0000000   1.0000000   1.0000000   5.6000000   5.6000000   3.6000000   3.6000000   1.0000000   1.0000000
 NQMom=    0.0000000   0.0000000   0.0000000   0.0000000   0.0000000   0.0000000   0.0000000   0.0000000   0.0000000   0.0000000
 NMagM=    2.7928460   2.7928460   2.7928460   2.7928460   0.0000000   0.0000000   0.0000000   0.0000000   2.7928460   2.7928460
 AtZNuc=   1.0000000   1.0000000   1.0000000   1.0000000   8.0000000   8.0000000   6.0000000   6.0000000   1.0000000   1.0000000

  Atom        61          62          63          64          65          66          67          68          69          70
 IAtWgt=           1           1           1           1          12           1          12           1          12           1
 AtmWgt=   1.0078250   1.0078250   1.0078250   1.0078250  12.0000000   1.0078250  12.0000000   1.0078250  12.0000000   1.0078250
 NucSpn=           1           1           1           1           0           1           0           1           0           1
 AtZEff=   1.0000000   1.0000000   1.0000000   1.0000000   3.6000000   1.0000000   3.6000000   1.0000000   3.6000000   1.0000000
 NQMom=    0.0000000   0.0000000   0.0000000   0.0000000   0.0000000   0.0000000   0.0000000   0.0000000   0.0000000   0.0000000
 NMagM=    2.7928460   2.7928460   2.7928460   2.7928460   0.0000000   2.7928460   0.0000000   2.7928460   0.0000000   2.7928460
 AtZNuc=   1.0000000   1.0000000   1.0000000   1.0000000   6.0000000   1.0000000   6.0000000   1.0000000   6.0000000   1.0000000

  Atom        71          72
 IAtWgt=          12           1
 AtmWgt=  12.0000000   1.0078250
 NucSpn=           0           1
 AtZEff=   3.6000000   1.0000000
 NQMom=    0.0000000   0.0000000
 NMagM=    0.0000000   2.7928460
 AtZNuc=   6.0000000   1.0000000
 Leave Link  101 at Mon Oct 22 18:01:57 2018, MaxMem=  6710886400 cpu:              12.2 elap:               0.6
 (Enter /mnt/gpfs/share/opt/gaussian/g16-A.03/g16/l202.exe)
 Stoichiometry    C38H28N2O4
 Framework group  C1[X(C38H28N2O4)]
 Deg. of freedom   210
 Full point group                 C1      NOp   1
 RotChk:  IX=0 Diff= 3.85D-16
 Largest Abelian subgroup         C1      NOp   1
 Largest concise Abelian subgroup C1      NOp   1
                         Standard orientation:                         
 ---------------------------------------------------------------------
 Center     Atomic      Atomic             Coordinates (Angstroms)
 Number     Number       Type             X           Y           Z
 ---------------------------------------------------------------------
      1          6           0        5.864631    0.716748    0.082435
      2          6           0        7.103392    1.418753    0.163554
      3          6           0        7.103395   -1.418757   -0.163543
      4          6           0        5.864632   -0.716753   -0.082429
      5          6           0        4.643596    1.442761    0.165473
      6          6           0        4.643598   -1.442767   -0.165472
      7          6           0        4.668543    2.831215    0.325839
      8          6           0        7.090396    2.820505    0.325261
      9          1           0        3.715270    3.359521    0.386953
     10          1           0        8.043385    3.353857    0.387061
     11          6           0        7.090400   -2.820509   -0.325251
     12          6           0        4.668547   -2.831222   -0.325838
     13          1           0        8.043390   -3.353859   -0.387047
     14          1           0        3.715275   -3.359528   -0.386956
     15          6           0        3.367536   -0.716092   -0.080976
     16          6           0        3.367535    0.716084    0.080972
     17          6           0        1.073147   -0.710571   -0.076380
     18          7           0        2.234108   -1.410841   -0.157174
     19          7           0        2.234105    1.410832    0.157166
     20          6           0        1.073146    0.710560    0.076367
     21          6           0       -0.171316    1.390659    0.162539
     22          6           0       -0.171314   -1.390671   -0.162557
     23          6           0       -1.381021   -0.718067   -0.092849
     24          6           0       -1.381022    0.718054    0.092828
     25          1           0       -0.145691    2.470257    0.328075
     26          1           0       -0.145686   -2.470269   -0.328093
     27          6           0       -4.938060    3.114028    0.602677
     28          6           0       -3.943346    3.490554   -0.340669
     29          6           0       -2.810973    2.691844   -0.502224
     30          6           0       -2.636205    1.509088    0.250307
     31          6           0       -3.622677    1.148862    1.172085
     32          6           0       -4.762116    1.946724    1.348918
     33          1           0       -2.046855    2.966804   -1.230934
     34          1           0       -3.506878    0.241549    1.767613
     35          1           0       -5.513297    1.646650    2.080522
     36          6           0       -3.622671   -1.148879   -1.172115
     37          6           0       -2.636202   -1.509103   -0.250333
     38          6           0       -2.810972   -2.691859    0.502198
     39          6           0       -3.943346   -3.490567    0.340644
     40          6           0       -4.938058   -3.114042   -0.602706
     41          6           0       -4.762108   -1.946742   -1.348952
     42          1           0       -3.506870   -0.241567   -1.767644
     43          1           0       -2.046854   -2.966821    1.230907
     44          1           0       -5.513283   -1.646674   -2.080566
     45          8           0       -6.009087   -3.956333   -0.691420
     46          8           0       -4.200054   -4.640854    1.031640
     47          6           0       -7.021946   -3.610463   -1.625839
     48          6           0       -3.222978   -5.055555    1.976002
     49          1           0       -6.632852   -3.581937   -2.659499
     50          1           0       -7.783685   -4.396808   -1.548499
     51          1           0       -7.481655   -2.634112   -1.388790
     52          1           0       -3.602977   -5.988411    2.411776
     53          1           0       -2.246435   -5.249191    1.496872
     54          1           0       -3.085858   -4.308948    2.778939
     55          8           0       -4.200054    4.640839   -1.031670
     56          8           0       -6.009094    3.956315    0.691383
     57          6           0       -7.021866    3.610543    1.625932
     58          6           0       -3.222907    5.055618   -1.975923
     59          1           0       -7.481692    2.634229    1.388953
     60          1           0       -6.632644    3.581996    2.659543
     61          1           0       -7.783548    4.396952    1.548676
     62          1           0       -3.602862    5.988523   -2.411632
     63          1           0       -2.246394    5.249189   -1.496706
     64          1           0       -3.085743    4.309091   -2.778927
     65          6           0        5.888450    3.516005    0.405391
     66          1           0        5.893141    4.601500    0.531137
     67          6           0        5.888455   -3.516010   -0.405385
     68          1           0        5.893148   -4.601505   -0.531131
     69          6           0        8.335975    0.677008    0.078112
     70          1           0        9.277741    1.229340    0.141833
     71          6           0        8.335976   -0.677011   -0.078096
     72          1           0        9.277743   -1.229341   -0.141814
 ---------------------------------------------------------------------
 Rotational constants (GHZ):           0.1076956           0.0364670           0.0284346
 Leave Link  202 at Mon Oct 22 18:01:58 2018, MaxMem=  6710886400 cpu:               2.2 elap:               0.1
 (Enter /mnt/gpfs/share/opt/gaussian/g16-A.03/g16/l301.exe)
 Standard basis: 6-31G(d,p) (6D, 7F)
 Ernie: Thresh=  0.10000D-02 Tol=  0.10000D-05 Strict=F.
 There are   800 symmetry adapted cartesian basis functions of A   symmetry.
 There are   800 symmetry adapted basis functions of A   symmetry.
   800 basis functions,  1428 primitive gaussians,   800 cartesian basis functions
   151 alpha electrons      151 beta electrons
       nuclear repulsion energy      4696.7390127468 Hartrees.
 IExCor=32609 DFT=T Ex+Corr=LC-wPBE ExCW=0 ScaHFX=  1.000000
 ScaDFX=  1.000000  0.000000  1.000000  1.000000 ScalE2=  1.000000  1.000000
 IRadAn=      5 IRanWt=     -1 IRanGd=            0 ICorTp=0 IEmpDi=  4
 HFx  wShort=  0.000000 wLong=  0.172600 cFull=  0.000000 cShort=  0.000000 cLong=  1.000000
 DFx  wShort=  0.000000 wLong=  0.172600 cFull=  0.000000 cShort=  0.000000 cLong=  1.000000
 NAtoms=   72 NActive=   72 NUniq=   72 SFac= 1.00D+00 NAtFMM=   60 NAOKFM=T Big=T
 Integral buffers will be    131072 words long.
 Raffenetti 1 integral format.
 Two-electron integral symmetry is turned on.
 Leave Link  301 at Mon Oct 22 18:01:58 2018, MaxMem=  6710886400 cpu:               2.8 elap:               0.1
 (Enter /mnt/gpfs/share/opt/gaussian/g16-A.03/g16/l302.exe)
 NPDir=0 NMtPBC=     1 NCelOv=     1 NCel=       1 NClECP=     1 NCelD=      1
         NCelK=      1 NCelE2=     1 NClLst=     1 CellRange=     0.0.
 One-electron integrals computed using PRISM.
 One-electron integral symmetry used in STVInt
 NBasis=   800 RedAO= T EigKep=  1.49D-04  NBF=   800
 NBsUse=   800 1.00D-06 EigRej= -1.00D+00 NBFU=   800
 Precomputing XC quadrature grid using
 IXCGrd= 4 IRadAn=           5 IRanWt=          -1 IRanGd=           0 AccXCQ= 0.00D+00.
 Generated NRdTot=       0 NPtTot=           0 NUsed=           0 NTot=          32
 NSgBfM=   751   748   748   751   751 MxSgAt=    72 MxSgA2=    72.
 Leave Link  302 at Mon Oct 22 18:02:01 2018, MaxMem=  6710886400 cpu:              71.7 elap:               3.1
 (Enter /mnt/gpfs/share/opt/gaussian/g16-A.03/g16/l303.exe)
 DipDrv:  MaxL=1.
 Leave Link  303 at Mon Oct 22 18:02:01 2018, MaxMem=  6710886400 cpu:               4.5 elap:               0.2
 (Enter /mnt/gpfs/share/opt/gaussian/g16-A.03/g16/l308.exe)
 Leave Link  308 at Mon Oct 22 18:02:02 2018, MaxMem=  6710886400 cpu:               7.2 elap:               0.4
 (Enter /mnt/gpfs/share/opt/gaussian/g16-A.03/g16/l401.exe)
 Initial guess from the checkpoint file:  "qpp1_h_half_tuned_td_triplet.chk"
 B after Tr=    -0.000000    0.000000    0.000000
         Rot=    1.000000    0.000000    0.000000    0.000000 Ang=   0.00 deg.
 Guess basis will be translated and rotated to current coordinates.
 JPrj=2 DoOrth=T DoCkMO=T.
 Leave Link  401 at Mon Oct 22 18:02:04 2018, MaxMem=  6710886400 cpu:              61.7 elap:               2.6
 (Enter /mnt/gpfs/share/opt/gaussian/g16-A.03/g16/l502.exe)
 Integral symmetry usage will be decided dynamically.
 Closed shell SCF:
 Using DIIS extrapolation, IDIIS=  1040.
 NGot=  6710886400 LenX=  6709578936 LenY=  6708938136
 Requested convergence on RMS density matrix=1.00D-08 within 128 cycles.
 Requested convergence on MAX density matrix=1.00D-06.
 Requested convergence on             energy=1.00D-06.
 No special actions if energy rises.
 Fock matrices will be formed incrementally for  20 cycles.

 Cycle   1  Pass 1  IDiag  1:
 FoFJK:  IHMeth= 1 ICntrl=       0 DoSepK=T KAlg= 0 I1Cent=           0 FoldK=F
 IRaf=         1 NMat=       1 IRICut=       1 DoRegI=T DoRafI=F ISym2E= 0 IDoP0=0 IntGTp=1.
 FoFCou: FMM=T IPFlag=           0 FMFlag=      100000 FMFlg1=        2001
         NFxFlg=           0 DoJE=T BraDBF=F KetDBF=F FulRan=T
         wScrn=  0.000000 ICntrl=       500 IOpCl=  0 I1Cent=           0 NGrid=           0
         NMat0=    1 NMatS0=      1 NMatT0=    0 NMatD0=    1 NMtDS0=    0 NMtDT0=    0
 Symmetry not used in FoFCou.
 FMM levels:  10  Number of levels for PrismC:   9
 E= -1873.60116457962    
 DIIS: error= 2.58D-03 at cycle   1 NSaved=   1.
 NSaved= 1 IEnMin= 1 EnMin= -1873.60116457962     IErMin= 1 ErrMin= 2.58D-03
 ErrMax= 2.58D-03  0.00D+00 EMaxC= 1.00D-01 BMatC= 1.36D-02 BMatP= 1.36D-02
 IDIUse=3 WtCom= 9.74D-01 WtEn= 2.58D-02
 Coeff-Com:  0.100D+01
 Coeff-En:   0.100D+01
 Coeff:      0.100D+01
 Gap=     0.206 Goal=   None    Shift=    0.000
 GapD=    0.206 DampG=1.000 DampE=1.000 DampFc=1.0000 IDamp=-1.
 RMSDP=7.13D-04 MaxDP=4.59D-02              OVMax= 2.03D-02

 Cycle   2  Pass 1  IDiag  1:
 RMSU=  6.93D-04    CP:  1.02D+00
 E= -1873.62263996506     Delta-E=       -0.021475385439 Rises=F Damp=F
 DIIS: error= 7.98D-04 at cycle   2 NSaved=   2.
 NSaved= 2 IEnMin= 2 EnMin= -1873.62263996506     IErMin= 2 ErrMin= 7.98D-04
 ErrMax= 7.98D-04  0.00D+00 EMaxC= 1.00D-01 BMatC= 1.40D-03 BMatP= 1.36D-02
 IDIUse=3 WtCom= 9.92D-01 WtEn= 7.98D-03
 Coeff-Com:  0.320D-01 0.968D+00
 Coeff-En:   0.000D+00 0.100D+01
 Coeff:      0.318D-01 0.968D+00
 Gap=     0.208 Goal=   None    Shift=    0.000
 RMSDP=1.22D-04 MaxDP=6.75D-03 DE=-2.15D-02 OVMax= 8.64D-03

 Cycle   3  Pass 1  IDiag  1:
 RMSU=  1.07D-04    CP:  1.02D+00  1.08D+00
 E= -1873.62263486153     Delta-E=        0.000005103526 Rises=F Damp=F
 DIIS: error= 1.03D-03 at cycle   3 NSaved=   3.
 NSaved= 3 IEnMin= 2 EnMin= -1873.62263996506     IErMin= 2 ErrMin= 7.98D-04
 ErrMax= 1.03D-03  0.00D+00 EMaxC= 1.00D-01 BMatC= 2.12D-03 BMatP= 1.40D-03
 IDIUse=3 WtCom= 2.38D-01 WtEn= 7.62D-01
 Coeff-Com: -0.524D-01 0.589D+00 0.463D+00
 Coeff-En:   0.000D+00 0.501D+00 0.499D+00
 Coeff:     -0.125D-01 0.522D+00 0.490D+00
 Gap=     0.206 Goal=   None    Shift=    0.000
 RMSDP=6.26D-05 MaxDP=5.20D-03 DE= 5.10D-06 OVMax= 6.23D-03

 Cycle   4  Pass 1  IDiag  1:
 RMSU=  3.87D-05    CP:  1.02D+00  1.11D+00  5.88D-01
 E= -1873.62416861221     Delta-E=       -0.001533750677 Rises=F Damp=F
 DIIS: error= 2.63D-04 at cycle   4 NSaved=   4.
 NSaved= 4 IEnMin= 4 EnMin= -1873.62416861221     IErMin= 4 ErrMin= 2.63D-04
 ErrMax= 2.63D-04  0.00D+00 EMaxC= 1.00D-01 BMatC= 1.53D-04 BMatP= 1.40D-03
 IDIUse=3 WtCom= 9.97D-01 WtEn= 2.63D-03
 Coeff-Com: -0.221D-01 0.850D-01 0.238D+00 0.699D+00
 Coeff-En:   0.000D+00 0.000D+00 0.000D+00 0.100D+01
 Coeff:     -0.220D-01 0.847D-01 0.238D+00 0.699D+00
 Gap=     0.205 Goal=   None    Shift=    0.000
 RMSDP=1.94D-05 MaxDP=1.41D-03 DE=-1.53D-03 OVMax= 2.41D-03

 Cycle   5  Pass 1  IDiag  1:
 RMSU=  1.12D-05    CP:  1.02D+00  1.12D+00  7.11D-01  8.93D-01
 E= -1873.62429410306     Delta-E=       -0.000125490849 Rises=F Damp=F
 DIIS: error= 8.16D-05 at cycle   5 NSaved=   5.
 NSaved= 5 IEnMin= 5 EnMin= -1873.62429410306     IErMin= 5 ErrMin= 8.16D-05
 ErrMax= 8.16D-05  0.00D+00 EMaxC= 1.00D-01 BMatC= 8.82D-06 BMatP= 1.53D-04
 IDIUse=1 WtCom= 1.00D+00 WtEn= 0.00D+00
 Coeff-Com: -0.477D-02-0.250D-01 0.683D-01 0.336D+00 0.625D+00
 Coeff:     -0.477D-02-0.250D-01 0.683D-01 0.336D+00 0.625D+00
 Gap=     0.205 Goal=   None    Shift=    0.000
 RMSDP=6.43D-06 MaxDP=2.78D-04 DE=-1.25D-04 OVMax= 1.17D-03

 Cycle   6  Pass 1  IDiag  1:
 RMSU=  5.08D-06    CP:  1.02D+00  1.13D+00  7.19D-01  9.67D-01  8.08D-01
 E= -1873.62430491084     Delta-E=       -0.000010807778 Rises=F Damp=F
 DIIS: error= 4.95D-05 at cycle   6 NSaved=   6.
 NSaved= 6 IEnMin= 6 EnMin= -1873.62430491084     IErMin= 6 ErrMin= 4.95D-05
 ErrMax= 4.95D-05  0.00D+00 EMaxC= 1.00D-01 BMatC= 1.93D-06 BMatP= 8.82D-06
 IDIUse=1 WtCom= 1.00D+00 WtEn= 0.00D+00
 Coeff-Com:  0.290D-02-0.331D-01-0.166D-01 0.124D-01 0.339D+00 0.696D+00
 Coeff:      0.290D-02-0.331D-01-0.166D-01 0.124D-01 0.339D+00 0.696D+00
 Gap=     0.205 Goal=   None    Shift=    0.000
 RMSDP=3.24D-06 MaxDP=1.68D-04 DE=-1.08D-05 OVMax= 6.27D-04

 Cycle   7  Pass 1  IDiag  1:
 RMSU=  2.32D-06    CP:  1.02D+00  1.13D+00  7.33D-01  9.82D-01  9.41D-01
                    CP:  8.98D-01
 E= -1873.62430812232     Delta-E=       -0.000003211484 Rises=F Damp=F
 DIIS: error= 1.11D-05 at cycle   7 NSaved=   7.
 NSaved= 7 IEnMin= 7 EnMin= -1873.62430812232     IErMin= 7 ErrMin= 1.11D-05
 ErrMax= 1.11D-05  0.00D+00 EMaxC= 1.00D-01 BMatC= 1.87D-07 BMatP= 1.93D-06
 IDIUse=1 WtCom= 1.00D+00 WtEn= 0.00D+00
 Coeff-Com:  0.178D-02-0.114D-01-0.155D-01-0.370D-01 0.694D-01 0.296D+00
 Coeff-Com:  0.696D+00
 Coeff:      0.178D-02-0.114D-01-0.155D-01-0.370D-01 0.694D-01 0.296D+00
 Coeff:      0.696D+00
 Gap=     0.205 Goal=   None    Shift=    0.000
 RMSDP=1.16D-06 MaxDP=5.44D-05 DE=-3.21D-06 OVMax= 2.09D-04

 Cycle   8  Pass 1  IDiag  1:
 RMSU=  7.56D-07    CP:  1.02D+00  1.13D+00  7.36D-01  9.92D-01  9.79D-01
                    CP:  1.01D+00  9.05D-01
 E= -1873.62430851932     Delta-E=       -0.000000397002 Rises=F Damp=F
 DIIS: error= 6.17D-06 at cycle   8 NSaved=   8.
 NSaved= 8 IEnMin= 8 EnMin= -1873.62430851932     IErMin= 8 ErrMin= 6.17D-06
 ErrMax= 6.17D-06  0.00D+00 EMaxC= 1.00D-01 BMatC= 3.53D-08 BMatP= 1.87D-07
 IDIUse=1 WtCom= 1.00D+00 WtEn= 0.00D+00
 Coeff-Com:  0.270D-03 0.960D-03-0.402D-02-0.185D-01-0.315D-01 0.991D-04
 Coeff-Com:  0.314D+00 0.738D+00
 Coeff:      0.270D-03 0.960D-03-0.402D-02-0.185D-01-0.315D-01 0.991D-04
 Coeff:      0.314D+00 0.738D+00
 Gap=     0.205 Goal=   None    Shift=    0.000
 RMSDP=4.89D-07 MaxDP=2.81D-05 DE=-3.97D-07 OVMax= 1.29D-04

 Cycle   9  Pass 1  IDiag  1:
 RMSU=  3.44D-07    CP:  1.02D+00  1.13D+00  7.36D-01  9.95D-01  9.95D-01
                    CP:  1.03D+00  1.00D+00  9.66D-01
 E= -1873.62430858342     Delta-E=       -0.000000064094 Rises=F Damp=F
 DIIS: error= 2.96D-06 at cycle   9 NSaved=   9.
 NSaved= 9 IEnMin= 9 EnMin= -1873.62430858342     IErMin= 9 ErrMin= 2.96D-06
 ErrMax= 2.96D-06  0.00D+00 EMaxC= 1.00D-01 BMatC= 5.99D-09 BMatP= 3.53D-08
 IDIUse=1 WtCom= 1.00D+00 WtEn= 0.00D+00
 Coeff-Com: -0.135D-03 0.210D-02 0.534D-03-0.197D-02-0.243D-01-0.485D-01
 Coeff-Com:  0.266D-01 0.334D+00 0.712D+00
 Coeff:     -0.135D-03 0.210D-02 0.534D-03-0.197D-02-0.243D-01-0.485D-01
 Coeff:      0.266D-01 0.334D+00 0.712D+00
 Gap=     0.205 Goal=   None    Shift=    0.000
 RMSDP=2.17D-07 MaxDP=1.22D-05 DE=-6.41D-08 OVMax= 4.14D-05

 Cycle  10  Pass 1  IDiag  1:
 RMSU=  1.21D-07    CP:  1.02D+00  1.13D+00  7.36D-01  9.95D-01  9.96D-01
                    CP:  1.05D+00  1.05D+00  1.13D+00  8.82D-01
 E= -1873.62430859377     Delta-E=       -0.000000010347 Rises=F Damp=F
 DIIS: error= 1.26D-06 at cycle  10 NSaved=  10.
 NSaved=10 IEnMin=10 EnMin= -1873.62430859377     IErMin=10 ErrMin= 1.26D-06
 ErrMax= 1.26D-06  0.00D+00 EMaxC= 1.00D-01 BMatC= 9.72D-10 BMatP= 5.99D-09
 IDIUse=1 WtCom= 1.00D+00 WtEn= 0.00D+00
 Coeff-Com: -0.106D-03 0.103D-02 0.722D-03 0.112D-02-0.977D-02-0.262D-01
 Coeff-Com: -0.174D-01 0.975D-01 0.353D+00 0.600D+00
 Coeff:     -0.106D-03 0.103D-02 0.722D-03 0.112D-02-0.977D-02-0.262D-01
 Coeff:     -0.174D-01 0.975D-01 0.353D+00 0.600D+00
 Gap=     0.205 Goal=   None    Shift=    0.000
 RMSDP=6.95D-08 MaxDP=4.50D-06 DE=-1.03D-08 OVMax= 1.80D-05

 Cycle  11  Pass 1  IDiag  1:
 RMSU=  4.71D-08    CP:  1.02D+00  1.13D+00  7.36D-01  9.95D-01  9.97D-01
                    CP:  1.05D+00  1.05D+00  1.15D+00  1.00D+00  8.17D-01
 E= -1873.62430859498     Delta-E=       -0.000000001211 Rises=F Damp=F
 DIIS: error= 6.83D-07 at cycle  11 NSaved=  11.
 NSaved=11 IEnMin=11 EnMin= -1873.62430859498     IErMin=11 ErrMin= 6.83D-07
 ErrMax= 6.83D-07  0.00D+00 EMaxC= 1.00D-01 BMatC= 1.95D-10 BMatP= 9.72D-10
 IDIUse=1 WtCom= 1.00D+00 WtEn= 0.00D+00
 Coeff-Com: -0.258D-04 0.699D-04 0.241D-03 0.110D-02 0.161D-05-0.340D-02
 Coeff-Com: -0.151D-01-0.210D-01 0.224D-01 0.312D+00 0.704D+00
 Coeff:     -0.258D-04 0.699D-04 0.241D-03 0.110D-02 0.161D-05-0.340D-02
 Coeff:     -0.151D-01-0.210D-01 0.224D-01 0.312D+00 0.704D+00
 Gap=     0.205 Goal=   None    Shift=    0.000
 RMSDP=3.67D-08 MaxDP=1.71D-06 DE=-1.21D-09 OVMax= 7.54D-06

 Cycle  12  Pass 1  IDiag  1:
 RMSU=  2.28D-08    CP:  1.02D+00  1.13D+00  7.36D-01  9.95D-01  9.97D-01
                    CP:  1.05D+00  1.05D+00  1.17D+00  1.03D+00  9.84D-01
                    CP:  9.31D-01
 E= -1873.62430859580     Delta-E=       -0.000000000826 Rises=F Damp=F
 DIIS: error= 1.77D-07 at cycle  12 NSaved=  12.
 NSaved=12 IEnMin=12 EnMin= -1873.62430859580     IErMin=12 ErrMin= 1.77D-07
 ErrMax= 1.77D-07  0.00D+00 EMaxC= 1.00D-01 BMatC= 2.38D-11 BMatP= 1.95D-10
 IDIUse=1 WtCom= 1.00D+00 WtEn= 0.00D+00
 Coeff-Com:  0.281D-05-0.106D-03 0.129D-05 0.311D-03 0.128D-02 0.232D-02
 Coeff-Com: -0.406D-02-0.226D-01-0.431D-01 0.514D-01 0.300D+00 0.715D+00
 Coeff:      0.281D-05-0.106D-03 0.129D-05 0.311D-03 0.128D-02 0.232D-02
 Coeff:     -0.406D-02-0.226D-01-0.431D-01 0.514D-01 0.300D+00 0.715D+00
 Gap=     0.205 Goal=   None    Shift=    0.000
 RMSDP=1.49D-08 MaxDP=9.02D-07 DE=-8.26D-10 OVMax= 4.27D-06

 Cycle  13  Pass 1  IDiag  1:
 RMSU=  9.10D-09    CP:  1.02D+00  1.13D+00  7.36D-01  9.95D-01  9.97D-01
                    CP:  1.05D+00  1.05D+00  1.17D+00  1.04D+00  1.04D+00
                    CP:  1.09D+00  9.45D-01
 E= -1873.62430859536     Delta-E=        0.000000000438 Rises=F Damp=F
 DIIS: error= 1.13D-07 at cycle  13 NSaved=  13.
 NSaved=13 IEnMin=12 EnMin= -1873.62430859580     IErMin=13 ErrMin= 1.13D-07
 ErrMax= 1.13D-07  0.00D+00 EMaxC= 1.00D-01 BMatC= 6.26D-12 BMatP= 2.38D-11
 IDIUse=1 WtCom= 1.00D+00 WtEn= 0.00D+00
 Coeff-Com:  0.818D-05-0.714D-04-0.594D-04-0.116D-03 0.678D-03 0.217D-02
 Coeff-Com:  0.170D-02-0.570D-02-0.255D-01-0.505D-01-0.434D-01 0.337D+00
 Coeff-Com:  0.784D+00
 Coeff:      0.818D-05-0.714D-04-0.594D-04-0.116D-03 0.678D-03 0.217D-02
 Coeff:      0.170D-02-0.570D-02-0.255D-01-0.505D-01-0.434D-01 0.337D+00
 Coeff:      0.784D+00
 Gap=     0.205 Goal=   None    Shift=    0.000
 RMSDP=8.53D-09 MaxDP=5.21D-07 DE= 4.38D-10 OVMax= 2.18D-06

 SCF Done:  E(RLC-wPBE) =  -1873.62430860     A.U. after   13 cycles
            NFock= 13  Conv=0.85D-08     -V/T= 2.0102
 KE= 1.854759591480D+03 PE=-1.374821566548D+04 EE= 5.323092752656D+03
 Leave Link  502 at Mon Oct 22 18:04:30 2018, MaxMem=  6710886400 cpu:            3326.1 elap:             145.8
 (Enter /mnt/gpfs/share/opt/gaussian/g16-A.03/g16/l801.exe)
 DoSCS=F DFT=T ScalE2(SS,OS)=  1.000000  1.000000
 ExpMin= 1.61D-01 ExpMax= 5.48D+03 ExpMxC= 8.25D+02 IAcc=3 IRadAn=         5 AccDes= 0.00D+00
 HarFok:  IExCor=  205 AccDes= 0.00D+00 IRadAn=         5 IDoV=-2 UseB2=F ITyADJ=14
 ICtDFT= 12500011 ScaDFX=  1.000000  1.000000  1.000000  1.000000
 GSVD:  LWork=       -2288 too small for GESVD, short by       10340 words or       10340 for optimal perf.
 Largest valence mixing into a core orbital is  3.99D-05
 Largest core mixing into a valence orbital is  9.82D-06
 Range of M.O.s used for correlation:    45   800
 NBasis=   800 NAE=   151 NBE=   151 NFC=    44 NFV=     0
 NROrb=    756 NOA=   107 NOB=   107 NVA=   649 NVB=   649

 **** Warning!!: The largest alpha MO coefficient is  0.13376672D+02

 Leave Link  801 at Mon Oct 22 18:04:32 2018, MaxMem=  6710886400 cpu:              41.2 elap:               1.9
 (Enter /mnt/gpfs/share/opt/gaussian/g16-A.03/g16/l914.exe)
 RHF ground state
 Two-electron integrals replicated using symmetry.
 MDV=  6710886400 DFT=T DoStab=F Mixed=T DoRPA=T DoScal=F NonHer=T
 Making orbital integer symmetry assigments:
 Orbital symmetries:
       Occupied  (A) (A) (A) (A) (A) (A) (A) (A) (A) (A) (A) (A)
                 (A) (A) (A) (A) (A) (A) (A) (A) (A) (A) (A) (A)
                 (A) (A) (A) (A) (A) (A) (A) (A) (A) (A) (A) (A)
                 (A) (A) (A) (A) (A) (A) (A) (A) (A) (A) (A) (A)
                 (A) (A) (A) (A) (A) (A) (A) (A) (A) (A) (A) (A)
                 (A) (A) (A) (A) (A) (A) (A) (A) (A) (A) (A) (A)
                 (A) (A) (A) (A) (A) (A) (A) (A) (A) (A) (A) (A)
                 (A) (A) (A) (A) (A) (A) (A) (A) (A) (A) (A) (A)
                 (A) (A) (A) (A) (A) (A) (A) (A) (A) (A) (A) (A)
                 (A) (A) (A) (A) (A) (A) (A) (A) (A) (A) (A) (A)
                 (A) (A) (A) (A) (A) (A) (A) (A) (A) (A) (A) (A)
                 (A) (A) (A) (A) (A) (A) (A) (A) (A) (A) (A) (A)
                 (A) (A) (A) (A) (A) (A) (A)
       Virtual   (A) (A) (A) (A) (A) (A) (A) (A) (A) (A) (A) (A)
                 (A) (A) (A) (A) (A) (A) (A) (A) (A) (A) (A) (A)
                 (A) (A) (A) (A) (A) (A) (A) (A) (A) (A) (A) (A)
                 (A) (A) (A) (A) (A) (A) (A) (A) (A) (A) (A) (A)
                 (A) (A) (A) (A) (A) (A) (A) (A) (A) (A) (A) (A)
                 (A) (A) (A) (A) (A) (A) (A) (A) (A) (A) (A) (A)
                 (A) (A) (A) (A) (A) (A) (A) (A) (A) (A) (A) (A)
                 (A) (A) (A) (A) (A) (A) (A) (A) (A) (A) (A) (A)
                 (A) (A) (A) (A) (A) (A) (A) (A) (A) (A) (A) (A)
                 (A) (A) (A) (A) (A) (A) (A) (A) (A) (A) (A) (A)
                 (A) (A) (A) (A) (A) (A) (A) (A) (A) (A) (A) (A)
                 (A) (A) (A) (A) (A) (A) (A) (A) (A) (A) (A) (A)
                 (A) (A) (A) (A) (A) (A) (A) (A) (A) (A) (A) (A)
                 (A) (A) (A) (A) (A) (A) (A) (A) (A) (A) (A) (A)
                 (A) (A) (A) (A) (A) (A) (A) (A) (A) (A) (A) (A)
                 (A) (A) (A) (A) (A) (A) (A) (A) (A) (A) (A) (A)
                 (A) (A) (A) (A) (A) (A) (A) (A) (A) (A) (A) (A)
                 (A) (A) (A) (A) (A) (A) (A) (A) (A) (A) (A) (A)
                 (A) (A) (A) (A) (A) (A) (A) (A) (A) (A) (A) (A)
                 (A) (A) (A) (A) (A) (A) (A) (A) (A) (A) (A) (A)
                 (A) (A) (A) (A) (A) (A) (A) (A) (A) (A) (A) (A)
                 (A) (A) (A) (A) (A) (A) (A) (A) (A) (A) (A) (A)
                 (A) (A) (A) (A) (A) (A) (A) (A) (A) (A) (A) (A)
                 (A) (A) (A) (A) (A) (A) (A) (A) (A) (A) (A) (A)
                 (A) (A) (A) (A) (A) (A) (A) (A) (A) (A) (A) (A)
                 (A) (A) (A) (A) (A) (A) (A) (A) (A) (A) (A) (A)
                 (A) (A) (A) (A) (A) (A) (A) (A) (A) (A) (A) (A)
                 (A) (A) (A) (A) (A) (A) (A) (A) (A) (A) (A) (A)
                 (A) (A) (A) (A) (A) (A) (A) (A) (A) (A) (A) (A)
                 (A) (A) (A) (A) (A) (A) (A) (A) (A) (A) (A) (A)
                 (A) (A) (A) (A) (A) (A) (A) (A) (A) (A) (A) (A)
                 (A) (A) (A) (A) (A) (A) (A) (A) (A) (A) (A) (A)
                 (A) (A) (A) (A) (A) (A) (A) (A) (A) (A) (A) (A)
                 (A) (A) (A) (A) (A) (A) (A) (A) (A) (A) (A) (A)
                 (A) (A) (A) (A) (A) (A) (A) (A) (A) (A) (A) (A)
                 (A) (A) (A) (A) (A) (A) (A) (A) (A) (A) (A) (A)
                 (A) (A) (A) (A) (A) (A) (A) (A) (A) (A) (A) (A)
                 (A) (A) (A) (A) (A) (A) (A) (A) (A) (A) (A) (A)
                 (A) (A) (A) (A) (A) (A) (A) (A) (A) (A) (A) (A)
                 (A) (A) (A) (A) (A) (A) (A) (A) (A) (A) (A) (A)
                 (A) (A) (A) (A) (A) (A) (A) (A) (A) (A) (A) (A)
                 (A) (A) (A) (A) (A) (A) (A) (A) (A) (A) (A) (A)
                 (A) (A) (A) (A) (A) (A) (A) (A) (A) (A) (A) (A)
                 (A) (A) (A) (A) (A) (A) (A) (A) (A) (A) (A) (A)
                 (A) (A) (A) (A) (A) (A) (A) (A) (A) (A) (A) (A)
                 (A) (A) (A) (A) (A) (A) (A) (A) (A) (A) (A) (A)
                 (A) (A) (A) (A) (A) (A) (A) (A) (A) (A) (A) (A)
                 (A) (A) (A) (A) (A) (A) (A) (A) (A) (A) (A) (A)
                 (A) (A) (A) (A) (A) (A) (A) (A) (A) (A) (A) (A)
                 (A) (A) (A) (A) (A) (A) (A) (A) (A) (A) (A) (A)
                 (A) (A) (A) (A) (A) (A) (A) (A) (A) (A) (A) (A)
                 (A) (A) (A) (A) (A) (A) (A) (A) (A) (A) (A) (A)
                 (A) (A) (A) (A) (A) (A) (A) (A) (A) (A) (A) (A)
                 (A) (A) (A) (A) (A) (A) (A) (A) (A) (A) (A) (A)
                 (A)
    80 initial guesses have been made.
 Convergence on wavefunction:    0.001000000000000
 Davidson Disk Diagonalization:  ConvIn= 1.00D-03 SkipCon=T Conv= 1.00D-03.
 Max sub-space:  3600 roots to seek:    80 dimension of matrix:       138886
 Iteration     1 Dimension    80 NMult     0 NNew     80
 CISAX will form    80 AO SS matrices at one time.
 NMat=    80 NSing=     0 JSym2X= 0.
 FoFJK:  IHMeth= 1 ICntrl=       0 DoSepK=T KAlg= 0 I1Cent=           0 FoldK=F
 IRaf=         1 NMat=     160 IRICut=       1 DoRegI=T DoRafI=F ISym2E= 0 IDoP0=0 IntGTp=1.
 FoFCou: FMM=T IPFlag=           0 FMFlag=      100000 FMFlg1=        2001
         NFxFlg=           0 DoJE=F BraDBF=F KetDBF=F FulRan=T
         wScrn=  0.000000 ICntrl=         0 IOpCl=  0 I1Cent=           0 NGrid=           0
         NMat0=  160 NMatS0=      0 NMatT0=   80 NMatD0=  160 NMtDS0=    0 NMtDT0=    0
         CW=    0.000000    1.000000
         WU=    0.000000   16.783728
 Symmetry not used in FoFCou.
 FMM levels:  10  Number of levels for PrismC:   7
 New state      2 was old state      5
 New state      3 was old state      8
 New state      4 was old state      7
 New state      5 was old state      3
 New state      6 was old state     11
 New state      7 was old state     13
 New state      8 was old state     10
 New state      9 was old state     16
 New state     10 was old state     22
 New state     11 was old state     25
 New state     12 was old state      2
 New state     13 was old state     32
 New state     14 was old state     15
 New state     15 was old state      9
 New state     16 was old state     21
 New state     17 was old state     34
 New state     18 was old state     24
 New state     19 was old state     29
 New state     20 was old state     69
 Excitation Energies [eV] at current iteration:
 Root      1 :     2.632670868549335
 Root      2 :     2.685892983527081
 Root      3 :     2.777287992015481
 Root      4 :     3.001542491166388
 Root      5 :     3.191883773989379
 Root      6 :     3.507863956893547
 Root      7 :     3.651512784882848
 Root      8 :     3.679093140376772
 Root      9 :     3.798048191939440
 Root     10 :     3.955932896720004
 Root     11 :     3.958918323869205
 Root     12 :     3.964446784016949
 Root     13 :     4.028875775329873
 Root     14 :     4.061727432077840
 Root     15 :     4.121925974400172
 Root     16 :     4.263094568936778
 Root     17 :     4.376800628089039
 Root     18 :     4.382237628592328
 Root     19 :     4.428733246246011
 Root     20 :     4.515852496650722
 Root     21 :     4.536666977734611
 Root     22 :     4.659281236104230
 Root     23 :     4.719815699731123
 Root     24 :     4.846698641305992
 Root     25 :     5.019432747085708
 Root     26 :     5.055671407782716
 Root     27 :     5.103152713409914
 Root     28 :     5.146817382082661
 Root     29 :     5.275106359677872
 Root     30 :     5.311521716808715
 Root     31 :     5.312340831648218
 Root     32 :     5.318041470173739
 Root     33 :     5.414334330244589
 Root     34 :     5.462973290191163
 Root     35 :     5.514266417054529
 Root     36 :     5.592181203854961
 Root     37 :     5.648584714545088
 Root     38 :     5.667141537818087
 Root     39 :     5.734860225648979
 Root     40 :     5.742806797849485
 Root     41 :     5.784918109553860
 Root     42 :     5.826480149849372
 Root     43 :     5.836903665834989
 Root     44 :     5.925121478878722
 Root     45 :     5.944297338669568
 Root     46 :     5.976420752883237
 Root     47 :     6.038097295941493
 Root     48 :     6.060730613493549
 Root     49 :     6.065397437055880
 Root     50 :     6.155655856242157
 Root     51 :     6.213341068897789
 Root     52 :     6.284909616546294
 Root     53 :     6.377455773176862
 Root     54 :     6.391272924425660
 Root     55 :     6.467808579150994
 Root     56 :     6.471448656677509
 Root     57 :     6.514856133745154
 Root     58 :     6.554260159103194
 Root     59 :     6.594743049612315
 Root     60 :     6.635353704702737
 Root     61 :     6.683488276244512
 Root     62 :     6.709055211118807
 Root     63 :     6.805472166995497
 Root     64 :     6.900898153523161
 Root     65 :     6.904102785919425
 Root     66 :     6.940650868401010
 Root     67 :     7.012738546114559
 Root     68 :     7.018685203189714
 Root     69 :     7.102970532265020
 Root     70 :     7.112557951537365
 Root     71 :     7.126370678127286
 Root     72 :     7.140745760225141
 Root     73 :     7.151415684795109
 Root     74 :     7.174788477568949
 Root     75 :     7.184302624121126
 Root     76 :     7.217051933600974
[...]
 Alpha virt. eigenvalues --    1.30035   1.30873   1.31033   1.31552   1.32063
 Alpha virt. eigenvalues --    1.32515   1.33545   1.33627   1.34248   1.34310
 Alpha virt. eigenvalues --    1.35857   1.35997   1.36002   1.36323   1.36940
 Alpha virt. eigenvalues --    1.37244   1.37932   1.38491   1.38981   1.39062
 Alpha virt. eigenvalues --    1.40165   1.40684   1.41240   1.41442   1.41769
 Alpha virt. eigenvalues --    1.42314   1.42529   1.42600   1.43794   1.43866
 Alpha virt. eigenvalues --    1.44035   1.45258   1.45863   1.46571   1.46679
 Alpha virt. eigenvalues --    1.46827   1.47385   1.48295   1.48700   1.49375
 Alpha virt. eigenvalues --    1.49841   1.51146   1.51237   1.52244   1.52713
 Alpha virt. eigenvalues --    1.54616   1.55359   1.58237   1.58645   1.59993
 Alpha virt. eigenvalues --    1.60191   1.61550   1.63636   1.64619   1.65425
 Alpha virt. eigenvalues --    1.68121   1.68673   1.69786   1.71697   1.71880
 Alpha virt. eigenvalues --    1.73221   1.74666   1.74874   1.75748   1.76010
 Alpha virt. eigenvalues --    1.76547   1.77288   1.78062   1.78593   1.79012
 Alpha virt. eigenvalues --    1.79883   1.79899   1.80578   1.81080   1.81484
 Alpha virt. eigenvalues --    1.81805   1.82380   1.82516   1.83346   1.83643
 Alpha virt. eigenvalues --    1.83889   1.84430   1.84474   1.85216   1.85468
 Alpha virt. eigenvalues --    1.85673   1.87272   1.87459   1.88167   1.88427
 Alpha virt. eigenvalues --    1.88606   1.89697   1.89873   1.90187   1.90200
 Alpha virt. eigenvalues --    1.90485   1.90640   1.90974   1.91022   1.91660
 Alpha virt. eigenvalues --    1.91761   1.91955   1.92335   1.92806   1.92989
 Alpha virt. eigenvalues --    1.93553   1.94216   1.94472   1.94937   1.94963
 Alpha virt. eigenvalues --    1.96028   1.96547   1.96757   1.97845   1.99096
 Alpha virt. eigenvalues --    1.99256   1.99424   1.99698   1.99745   1.99827
 Alpha virt. eigenvalues --    2.00520   2.01103   2.01803   2.02029   2.02210
 Alpha virt. eigenvalues --    2.03021   2.03189   2.03973   2.04000   2.04076
 Alpha virt. eigenvalues --    2.04196   2.04274   2.04374   2.04874   2.05009
 Alpha virt. eigenvalues --    2.05062   2.05527   2.05755   2.06050   2.06077
 Alpha virt. eigenvalues --    2.06292   2.06636   2.07937   2.08063   2.11121
 Alpha virt. eigenvalues --    2.11216   2.11635   2.12123   2.12689   2.13159
 Alpha virt. eigenvalues --    2.14145   2.15344   2.17504   2.18003   2.19046
 Alpha virt. eigenvalues --    2.20027   2.20852   2.21641   2.22707   2.22921
 Alpha virt. eigenvalues --    2.23614   2.24254   2.24556   2.24680   2.24800
 Alpha virt. eigenvalues --    2.25104   2.25562   2.26880   2.28300   2.28714
 Alpha virt. eigenvalues --    2.28756   2.29179   2.29299   2.29728   2.30297
 Alpha virt. eigenvalues --    2.30434   2.31189   2.32845   2.34815   2.34970
 Alpha virt. eigenvalues --    2.35483   2.36819   2.37128   2.37228   2.37405
 Alpha virt. eigenvalues --    2.38251   2.38683   2.39248   2.39784   2.40023
 Alpha virt. eigenvalues --    2.40115   2.41053   2.41427   2.42577   2.43608
 Alpha virt. eigenvalues --    2.44329   2.44461   2.44855   2.45030   2.45220
 Alpha virt. eigenvalues --    2.47804   2.48279   2.48587   2.48995   2.49797
 Alpha virt. eigenvalues --    2.49872   2.50499   2.51110   2.52555   2.53296
 Alpha virt. eigenvalues --    2.54073   2.54680   2.54764   2.55070   2.55700
 Alpha virt. eigenvalues --    2.55791   2.56393   2.56500   2.57212   2.57536
 Alpha virt. eigenvalues --    2.57895   2.58642   2.58647   2.59013   2.59604
 Alpha virt. eigenvalues --    2.59724   2.60021   2.60267   2.60790   2.61654
 Alpha virt. eigenvalues --    2.61917   2.62266   2.62295   2.62440   2.62554
 Alpha virt. eigenvalues --    2.62981   2.63898   2.64181   2.65273   2.65639
 Alpha virt. eigenvalues --    2.66093   2.66482   2.67553   2.67689   2.68107
 Alpha virt. eigenvalues --    2.68160   2.69129   2.70607   2.70807   2.71118
 Alpha virt. eigenvalues --    2.71733   2.71854   2.72768   2.73281   2.73950
 Alpha virt. eigenvalues --    2.74223   2.74554   2.75394   2.75608   2.75885
 Alpha virt. eigenvalues --    2.76986   2.77324   2.77968   2.78639   2.79124
 Alpha virt. eigenvalues --    2.80941   2.82796   2.83060   2.83403   2.83459
 Alpha virt. eigenvalues --    2.83471   2.83990   2.84175   2.84233   2.84661
 Alpha virt. eigenvalues --    2.84730   2.85820   2.87317   2.89142   2.89597
 Alpha virt. eigenvalues --    2.90040   2.91488   2.92348   2.96340   2.98437
 Alpha virt. eigenvalues --    3.00182   3.00810   3.02687   3.04988   3.05556
 Alpha virt. eigenvalues --    3.06771   3.06842   3.08518   3.09444   3.11583
 Alpha virt. eigenvalues --    3.12683   3.13606   3.13762   3.17202   3.17407
 Alpha virt. eigenvalues --    3.17714   3.17960   3.17989   3.19102   3.19935
 Alpha virt. eigenvalues --    3.20302   3.22748   3.22801   3.24432   3.24639
 Alpha virt. eigenvalues --    3.25749   3.27382   3.27654   3.32209   3.32415
 Alpha virt. eigenvalues --    3.32751   3.33316   3.37359   3.38695   3.39951
 Alpha virt. eigenvalues --    3.40188   3.40210   3.40521   3.40545   3.41593
 Alpha virt. eigenvalues --    3.43457   3.43595   3.44201   3.46195   3.46682
 Alpha virt. eigenvalues --    3.47424   3.47481   3.48303   3.52157   3.65426
 Alpha virt. eigenvalues --    3.70771   3.76556   3.77391   3.79580   3.85845
 Alpha virt. eigenvalues --    4.02467   4.02996   4.04735   4.08574   4.12764
 Alpha virt. eigenvalues --    4.13307   4.14225   4.15098   4.15440   4.16825
 Alpha virt. eigenvalues --    4.17479   4.17829   4.18882   4.20283   4.21219
 Alpha virt. eigenvalues --    4.21386   4.22652   4.27749   4.32155   4.32433
 Alpha virt. eigenvalues --    4.32843   4.36282   4.36702   4.38741   4.43227
 Alpha virt. eigenvalues --    4.44510   4.45188   4.45259   4.46039   4.46841
 Alpha virt. eigenvalues --    4.48848   4.50772   4.51929   4.53095   4.55047
 Alpha virt. eigenvalues --    4.67016   4.68469   4.68925   4.75376   4.82101
 Alpha virt. eigenvalues --    4.90809   5.01664   5.02332   5.06118
          Condensed to atoms (all electrons):
 Mulliken charges:
               1
     1  C    0.016910
     2  C    0.083719
     3  C    0.083719
     4  C    0.016910
     5  C    0.053922
     6  C    0.053922
     7  C   -0.137083
     8  C   -0.154679
     9  H    0.123896
    10  H    0.098871
    11  C   -0.154679
    12  C   -0.137083
    13  H    0.098871
    14  H    0.123896
    15  C    0.238400
    16  C    0.238400
    17  C    0.267842
    18  N   -0.567839
    19  N   -0.567840
    20  C    0.267842
    21  C   -0.161685
    22  C   -0.161685
    23  C    0.028345
    24  C    0.028345
    25  H    0.114916
    26  H    0.114917
    27  C    0.304116
    28  C    0.295924
    29  C   -0.174646
    30  C    0.006355
    31  C   -0.110472
    32  C   -0.161029
    33  H    0.103707
    34  H    0.103915
    35  H    0.100758
    36  C   -0.110472
    37  C    0.006355
    38  C   -0.174646
    39  C    0.295924
    40  C    0.304116
    41  C   -0.161029
    42  H    0.103915
    43  H    0.103706
    44  H    0.100758
    45  O   -0.466497
    46  O   -0.469336
    47  C   -0.142711
    48  C   -0.142146
    49  H    0.126825
    50  H    0.140069
    51  H    0.125822
    52  H    0.139867
    53  H    0.127030
    54  H    0.126176
    55  O   -0.469336
    56  O   -0.466497
    57  C   -0.142711
    58  C   -0.142146
    59  H    0.125821
    60  H    0.126825
    61  H    0.140069
    62  H    0.139867
    63  H    0.127030
    64  H    0.126176
    65  C   -0.102522
    66  H    0.103368
    67  C   -0.102522
    68  H    0.103368
    69  C   -0.140208
    70  H    0.100104
    71  C   -0.140208
    72  H    0.100104
 Sum of Mulliken charges =  -0.00000
 Mulliken charges with hydrogens summed into heavy atoms:
               1
     1  C    0.016910
     2  C    0.083719
     3  C    0.083719
     4  C    0.016910
     5  C    0.053922
     6  C    0.053922
     7  C   -0.013187
     8  C   -0.055808
    11  C   -0.055808
    12  C   -0.013187
    15  C    0.238400
    16  C    0.238400
    17  C    0.267842
    18  N   -0.567839
    19  N   -0.567840
    20  C    0.267842
    21  C   -0.046769
    22  C   -0.046768
    23  C    0.028345
    24  C    0.028345
    27  C    0.304116
    28  C    0.295924
    29  C   -0.070939
    30  C    0.006355
    31  C   -0.006557
    32  C   -0.060271
    36  C   -0.006557
    37  C    0.006355
    38  C   -0.070939
    39  C    0.295924
    40  C    0.304116
    41  C   -0.060271
    45  O   -0.466497
    46  O   -0.469336
    47  C    0.250004
    48  C    0.250926
    55  O   -0.469336
    56  O   -0.466497
    57  C    0.250004
    58  C    0.250926
    65  C    0.000846
    67  C    0.000846
    69  C   -0.040104
    71  C   -0.040104
 Electronic spatial extent (au):  <R**2>=          35259.5427
 Charge=             -0.0000 electrons
 Dipole moment (field-independent basis, Debye):
    X=             -1.3734    Y=              0.0002    Z=              0.0003  Tot=              1.3734
 Quadrupole moment (field-independent basis, Debye-Ang):
   XX=           -204.4330   YY=           -232.1557   ZZ=           -241.9613
   XY=             -0.0003   XZ=             -0.0014   YZ=             -4.9924
 Traceless Quadrupole moment (field-independent basis, Debye-Ang):
   XX=             21.7503   YY=             -5.9724   ZZ=            -15.7779
   XY=             -0.0003   XZ=             -0.0014   YZ=             -4.9924
 Octapole moment (field-independent basis, Debye-Ang**2):
  XXX=            -95.4079  YYY=              0.0129  ZZZ=              0.0014  XYY=             37.1917
  XXY=             -0.0025  XXZ=              0.0081  XZZ=           -128.9279  YZZ=             -0.0002
  YYZ=              0.0053  XYZ=            -15.8896
 Hexadecapole moment (field-independent basis, Debye-Ang**3):
 XXXX=         -30077.4048 YYYY=         -10550.2251 ZZZZ=          -1291.6438 XXXY=              0.0336
 XXXZ=             -0.0360 YYYX=             -0.0489 YYYZ=           -298.5777 ZZZX=             -0.0080
 ZZZY=            -97.5936 XXYY=          -7230.2463 XXZZ=          -5994.9697 YYZZ=          -1881.4983
 XXYZ=            492.8958 YYXZ=             -0.0335 ZZXY=             -0.0005
 N-N= 4.696739012747D+03 E-N=-1.374821564883D+04  KE= 1.854759591480D+03
 Leave Link  601 at Mon Oct 22 18:32:35 2018, MaxMem=  6710886400 cpu:              29.0 elap:               1.4
 (Enter /mnt/gpfs/share/opt/gaussian/g16-A.03/g16/l9999.exe)
 Electronic transition elements 
                 1             2             3             4             5 
      1  -0.187354D+04 -0.187353D+04 -0.187353D+04 -0.187353D+04 -0.187351D+04
      2   0.000000D+00  0.000000D+00  0.000000D+00  0.000000D+00  0.000000D+00
      3   0.000000D+00  0.000000D+00  0.000000D+00  0.000000D+00  0.000000D+00
      4   0.000000D+00  0.000000D+00  0.000000D+00  0.000000D+00  0.000000D+00
      5   0.000000D+00  0.000000D+00  0.000000D+00  0.000000D+00  0.000000D+00
      6   0.000000D+00  0.000000D+00  0.000000D+00  0.000000D+00  0.000000D+00
      7   0.000000D+00  0.000000D+00  0.000000D+00  0.000000D+00  0.000000D+00
      8   0.000000D+00  0.000000D+00  0.000000D+00  0.000000D+00  0.000000D+00
      9   0.000000D+00  0.000000D+00  0.000000D+00  0.000000D+00  0.000000D+00
     10   0.000000D+00  0.000000D+00  0.000000D+00  0.000000D+00  0.000000D+00
     11   0.000000D+00  0.000000D+00  0.000000D+00  0.000000D+00  0.000000D+00
     12   0.000000D+00  0.000000D+00  0.000000D+00  0.000000D+00  0.000000D+00
     13   0.000000D+00  0.000000D+00  0.000000D+00  0.000000D+00  0.000000D+00
     14   0.000000D+00  0.000000D+00  0.000000D+00  0.000000D+00  0.000000D+00
     15   0.000000D+00  0.000000D+00  0.000000D+00  0.000000D+00  0.000000D+00
     16   0.000000D+00  0.000000D+00  0.000000D+00  0.000000D+00  0.000000D+00
                 6             7             8             9            10 
      1  -0.187351D+04 -0.187350D+04 -0.187350D+04 -0.187349D+04 -0.187349D+04
      2   0.000000D+00  0.000000D+00  0.000000D+00  0.000000D+00  0.000000D+00
      3   0.000000D+00  0.000000D+00  0.000000D+00  0.000000D+00  0.000000D+00
      4   0.000000D+00  0.000000D+00  0.000000D+00  0.000000D+00  0.000000D+00
      5   0.000000D+00  0.000000D+00  0.000000D+00  0.000000D+00  0.000000D+00
      6   0.000000D+00  0.000000D+00  0.000000D+00  0.000000D+00  0.000000D+00
      7   0.000000D+00  0.000000D+00  0.000000D+00  0.000000D+00  0.000000D+00
      8   0.000000D+00  0.000000D+00  0.000000D+00  0.000000D+00  0.000000D+00
      9   0.000000D+00  0.000000D+00  0.000000D+00  0.000000D+00  0.000000D+00
     10   0.000000D+00  0.000000D+00  0.000000D+00  0.000000D+00  0.000000D+00
     11   0.000000D+00  0.000000D+00  0.000000D+00  0.000000D+00  0.000000D+00
     12   0.000000D+00  0.000000D+00  0.000000D+00  0.000000D+00  0.000000D+00
     13   0.000000D+00  0.000000D+00  0.000000D+00  0.000000D+00  0.000000D+00
     14   0.000000D+00  0.000000D+00  0.000000D+00  0.000000D+00  0.000000D+00
     15   0.000000D+00  0.000000D+00  0.000000D+00  0.000000D+00  0.000000D+00
     16   0.000000D+00  0.000000D+00  0.000000D+00  0.000000D+00  0.000000D+00
                11            12            13            14            15 
      1  -0.187349D+04 -0.187349D+04 -0.187348D+04 -0.187348D+04 -0.187348D+04
      2   0.000000D+00  0.000000D+00  0.000000D+00  0.000000D+00  0.000000D+00
      3   0.000000D+00  0.000000D+00  0.000000D+00  0.000000D+00  0.000000D+00
      4   0.000000D+00  0.000000D+00  0.000000D+00  0.000000D+00  0.000000D+00
      5   0.000000D+00  0.000000D+00  0.000000D+00  0.000000D+00  0.000000D+00
      6   0.000000D+00  0.000000D+00  0.000000D+00  0.000000D+00  0.000000D+00
      7   0.000000D+00  0.000000D+00  0.000000D+00  0.000000D+00  0.000000D+00
      8   0.000000D+00  0.000000D+00  0.000000D+00  0.000000D+00  0.000000D+00
      9   0.000000D+00  0.000000D+00  0.000000D+00  0.000000D+00  0.000000D+00
     10   0.000000D+00  0.000000D+00  0.000000D+00  0.000000D+00  0.000000D+00
     11   0.000000D+00  0.000000D+00  0.000000D+00  0.000000D+00  0.000000D+00
     12   0.000000D+00  0.000000D+00  0.000000D+00  0.000000D+00  0.000000D+00
     13   0.000000D+00  0.000000D+00  0.000000D+00  0.000000D+00  0.000000D+00
     14   0.000000D+00  0.000000D+00  0.000000D+00  0.000000D+00  0.000000D+00
     15   0.000000D+00  0.000000D+00  0.000000D+00  0.000000D+00  0.000000D+00
     16   0.000000D+00  0.000000D+00  0.000000D+00  0.000000D+00  0.000000D+00
                16            17            18            19            20 
      1  -0.187348D+04 -0.187347D+04 -0.187347D+04 -0.187347D+04 -0.187347D+04
      2   0.000000D+00  0.000000D+00  0.000000D+00  0.000000D+00  0.000000D+00
      3   0.000000D+00  0.000000D+00  0.000000D+00  0.000000D+00  0.000000D+00
      4   0.000000D+00  0.000000D+00  0.000000D+00  0.000000D+00  0.000000D+00
      5   0.000000D+00  0.000000D+00  0.000000D+00  0.000000D+00  0.000000D+00
      6   0.000000D+00  0.000000D+00  0.000000D+00  0.000000D+00  0.000000D+00
      7   0.000000D+00  0.000000D+00  0.000000D+00  0.000000D+00  0.000000D+00
      8   0.000000D+00  0.000000D+00  0.000000D+00  0.000000D+00  0.000000D+00
      9   0.000000D+00  0.000000D+00  0.000000D+00  0.000000D+00  0.000000D+00
     10   0.000000D+00  0.000000D+00  0.000000D+00  0.000000D+00  0.000000D+00
     11   0.000000D+00  0.000000D+00  0.000000D+00  0.000000D+00  0.000000D+00
     12   0.000000D+00  0.000000D+00  0.000000D+00  0.000000D+00  0.000000D+00
     13   0.000000D+00  0.000000D+00  0.000000D+00  0.000000D+00  0.000000D+00
     14   0.000000D+00  0.000000D+00  0.000000D+00  0.000000D+00  0.000000D+00
     15   0.000000D+00  0.000000D+00  0.000000D+00  0.000000D+00  0.000000D+00
     16   0.000000D+00  0.000000D+00  0.000000D+00  0.000000D+00  0.000000D+00

 Test job not archived.
 1\1\GINC-CNODE274\SP\RLC-wPBE TD-FC\6-31G(d,p)\C38H28N2O4\ROOT\22-Oct-
 2018\0\\#p td=(triplets,nstates=20) Geom=Checkpoint Guess=Read LC-wPBE
 /6-31g(d,p) IOP(3/107=0172600000) IOP(3/108=0172600000)\\Tuning input 
 file generated by awtune with parameters: w01726\\0,1\C,0,5.8648404996
 ,0.7168589088,0.0810070845\C,0,7.1036125867,1.4190073332,0.1607210099\
 C,0,7.1035732102,-1.4191478278,-0.1607346073\C,0,5.8648206175,-0.71696
 65369,-0.081007347\C,0,4.643816776,1.4430526439,0.1626101753\C,0,4.643
 7767577,-1.4431278674,-0.1625973398\C,0,4.6687834298,2.8318227554,0.32
 02154186\C,0,7.0906365066,2.8210776749,0.3196412075\H,0,3.7155182632,3
 .3602619467,0.3802856004\H,0,8.0436330695,3.3545381267,0.3803731445\C,
 0,7.0905582153,-2.8212178168,-0.3196547332\C,0,4.6687048411,-2.8318986
 377,-0.3202029465\H,0,8.0435399658,-3.3547035544,-0.3803969503\H,0,3.7
 154250186,-3.3603125592,-0.3802629717\C,0,3.3677251698,-0.716268419,-0
 .0795370979\C,0,3.3677449989,0.7162270456,0.0795637373\C,0,1.073336048
 4,-0.7107062115,-0.0749347831\N,0,2.2342863787,-1.4111514943,-0.154345
 2735\N,0,2.2343254021,1.4111401082,0.1543842579\C,0,1.0733557046,0.710
 7255004,0.0749863714\C,0,-0.1710962228,1.3910118797,0.1598155242\C,0,-
 0.1711347746,-1.3909597761,-0.1597503468\C,0,-1.3808317945,-0.71820155
 65,-0.0913715066\C,0,-1.3808117614,0.718285609,0.0914502712\H,0,-0.145
 4546909,2.4709362692,0.3232044304\H,0,-0.1455235067,-2.4708847696,-0.3
 231400543\C,0,-4.9378133277,3.1153182722,0.5965606385\C,0,-3.943100812
 6,3.4899543729,-0.3475390765\C,0,-2.8107398164,2.6909088085,-0.5075143
 629\C,0,-2.6359824489,1.5096492422,0.2473660356\C,0,-3.622453263,1.151
 2702223,1.1698649662\C,0,-4.7618796511,1.9494978541,1.3451200954\H,0,-
 2.0466239133,2.9644091451,-1.2367745029\H,0,-3.5066626257,0.2451413363
 ,1.7671946991\H,0,-5.5130594575,1.6508890473,2.0773250928\C,0,-3.62249
 6319,-1.1511270452,-1.1697615175\C,0,-2.636025346,-1.5095316271,-0.247
 2727461\C,0,-2.8108055683,-2.690786543,0.5076097916\C,0,-3.9431924091,
 -3.4897987827,0.3476514943\C,0,-4.9379055517,-3.1151362501,-0.59643718
 12\C,0,-4.7619455748,-1.949324745,-1.3450042644\H,0,-3.5066870596,-0.2
 450028107,-1.7670946722\H,0,-2.0466861944,-2.9643094978,1.2368577965\H
 ,0,-5.5131213016,-1.6507006762,-2.0772072083\O,0,-6.0089468121,-3.9575
 872707,-0.6834692634\O,0,-4.1999109247,-4.638706139,1.0409357196\C,0,-
 7.0218081038,-3.613561492,-1.6185661071\C,0,-3.222834007,-5.0515423518
 ,1.9861127805\H,0,-6.632721646,-3.587096341,-2.6522837635\H,0,-7.78355
 76485,-4.3997406384,-1.539657323\H,0,-7.4815025507,-2.6367345696,-1.38
 34554959\H,0,-3.6028426124,-5.98352507,2.4237435683\H,0,-2.2462970814,
 -5.2461438627,1.5073617946\H,0,-3.0856975434,-4.303342346,2.7875626257
 \O,0,-4.1997982912,4.6388661415,-1.0408236697\O,0,-6.0088343903,3.9577
 943547,0.6836001897\C,0,-7.0216048168,3.6138954002,1.6188419828\C,0,-3
 .2226524006,5.0517544019,-1.9859069533\H,0,-7.4814460003,2.6371185309,
 1.383807699\H,0,-6.6323758656,3.5873973739,2.6525045984\H,0,-7.7832765
 485,4.4001594292,1.5400282326\H,0,-3.6025976696,5.9837965428,-2.423466
 2149\H,0,-2.2461335236,5.2462641075,-1.5070828042\H,0,-3.0855050665,4.
 303629668,-2.7874256563\C,0,5.8887008435,3.5167523711,0.3983964712\H,0
 ,5.8934074764,4.6024947926,0.5219843319\C,0,5.8886032506,-3.5168606125
 ,-0.3983971437\H,0,5.893279716,-4.602603144,-0.5219851636\C,0,8.336184
 1898,0.6770766793,0.0767444063\H,0,9.2779588444,1.2295208052,0.1393606
 86\C,0,8.3361653945,-0.6772498756,-0.0767712322\H,0,9.277924719,-1.229
 7189835,-0.1393976492\\Version=ES64L-G16RevA.03\State=1-A\HF=-1873.624
 3086\RMSD=8.527e-09\PG=C01 [X(C38H28N2O4)]\\@


 SI MONUMENTUM REQUIRIS, CIRCUMSPICE
     -- FROM SIR CHRISTOPHER WREN'S TOMBSTONE
 Job cpu time:       0 days 12 hours  7 minutes 33.4 seconds.
 Elapsed time:       0 days  0 hours 30 minutes 39.8 seconds.
 File lengths (MBytes):  RWF=   9744 Int=      0 D2E=      0 Chk=   1072 Scr=     32
 Normal termination of Gaussian 16 at Mon Oct 22 18:32:36 2018.
