 Entering Gaussian System, Link 0=g16
 Input=qpp1_h_tuned_td_singlet.com
 Output=qpp1_h_tuned_td_singlet.log
 Initial command:
 /mnt/gpfs/share/opt/gaussian/g16-A.03/g16/l1.exe "/scratch/qai222/dlx3proj/qpp/data/tunedopt/Gau-151677.inp" -scrdir="/scratch/qai222/dlx3proj/qpp/data/tunedopt/"
 Entering Link 1 = /mnt/gpfs/share/opt/gaussian/g16-A.03/g16/l1.exe PID=    151678.
  
 Copyright (c) 1988,1990,1992,1993,1995,1998,2003,2009,2016,
            Gaussian, Inc.  All Rights Reserved.
  
 This is part of the Gaussian(R) 16 program.  It is based on
 the Gaussian(R) 09 system (copyright 2009, Gaussian, Inc.),
 the Gaussian(R) 03 system (copyright 2003, Gaussian, Inc.),
 the Gaussian(R) 98 system (copyright 1998, Gaussian, Inc.),
 the Gaussian(R) 94 system (copyright 1995, Gaussian, Inc.),
 the Gaussian 92(TM) system (copyright 1992, Gaussian, Inc.),
 the Gaussian 90(TM) system (copyright 1990, Gaussian, Inc.),
 the Gaussian 88(TM) system (copyright 1988, Gaussian, Inc.),
 the Gaussian 86(TM) system (copyright 1986, Carnegie Mellon
 University), and the Gaussian 82(TM) system (copyright 1983,
 Carnegie Mellon University). Gaussian is a federally registered
 trademark of Gaussian, Inc.
  
 This software contains proprietary and confidential information,
 including trade secrets, belonging to Gaussian, Inc.
  
 This software is provided under written license and may be
 used, copied, transmitted, or stored only in accord with that
 written license.
  
 The following legend is applicable only to US Government
 contracts under FAR:
  
                    RESTRICTED RIGHTS LEGEND
  
 Use, reproduction and disclosure by the US Government is
 subject to restrictions as set forth in subparagraphs (a)
 and (c) of the Commercial Computer Software - Restricted
 Rights clause in FAR 52.227-19.
  
 Gaussian, Inc.
 340 Quinnipiac St., Bldg. 40, Wallingford CT 06492
  
  
 ---------------------------------------------------------------
 Warning -- This program may not be used in any manner that
 competes with the business of Gaussian, Inc. or will provide
 assistance to any competitor of Gaussian, Inc.  The licensee
 of this program is prohibited from giving any competitor of
 Gaussian, Inc. access to this program.  By using this program,
 the user acknowledges that Gaussian, Inc. is engaged in the
 business of creating and licensing software in the field of
 computational chemistry and represents and warrants to the
 licensee that it is not a competitor of Gaussian, Inc. and that
 it will not use this program in any manner prohibited above.
 ---------------------------------------------------------------
  

 Cite this work as:
 Gaussian 16, Revision A.03,
 M. J. Frisch, G. W. Trucks, H. B. Schlegel, G. E. Scuseria, 
 M. A. Robb, J. R. Cheeseman, G. Scalmani, V. Barone, 
 G. A. Petersson, H. Nakatsuji, X. Li, M. Caricato, A. V. Marenich, 
 J. Bloino, B. G. Janesko, R. Gomperts, B. Mennucci, H. P. Hratchian, 
 J. V. Ortiz, A. F. Izmaylov, J. L. Sonnenberg, D. Williams-Young, 
 F. Ding, F. Lipparini, F. Egidi, J. Goings, B. Peng, A. Petrone, 
 T. Henderson, D. Ranasinghe, V. G. Zakrzewski, J. Gao, N. Rega, 
 G. Zheng, W. Liang, M. Hada, M. Ehara, K. Toyota, R. Fukuda, 
 J. Hasegawa, M. Ishida, T. Nakajima, Y. Honda, O. Kitao, H. Nakai, 
 T. Vreven, K. Throssell, J. A. Montgomery, Jr., J. E. Peralta, 
 F. Ogliaro, M. J. Bearpark, J. J. Heyd, E. N. Brothers, K. N. Kudin, 
 V. N. Staroverov, T. A. Keith, R. Kobayashi, J. Normand, 
 K. Raghavachari, A. P. Rendell, J. C. Burant, S. S. Iyengar, 
 J. Tomasi, M. Cossi, J. M. Millam, M. Klene, C. Adamo, R. Cammi, 
 J. W. Ochterski, R. L. Martin, K. Morokuma, O. Farkas, 
 J. B. Foresman, and D. J. Fox, Gaussian, Inc., Wallingford CT, 2016.
 
 ******************************************
 Gaussian 16:  ES64L-G16RevA.03 25-Dec-2016
                24-Oct-2018 
 ******************************************
 %chk=qpp1_h_tuned_td_singlet.chk
 %oldchk=qpp1_h_tuned.chk
 %nprocshared=24
 Will use up to   24 processors via shared memory.
 %mem=50GB
 Copying data from "qpp1_h_tuned.chk" to current chk file "qpp1_h_tuned_td_singlet.chk"
 IOpt=  2 FromEx=T IUOpen= 4 IOptOp= 5 NList=   0 IFRang= 0 IUIn= 4 IUOut= 2.
 ----------------------------------------------------------------------
 #p td=(singlets,nstates=20) Geom=Checkpoint Guess=Read LC-wPBE/6-31g(d
 ,p) IOP(3/107=0166600000) IOP(3/108=0166600000)
 ----------------------------------------------------------------------
 1/29=2,38=1,172=1/1;
 2/12=2,40=1/2;
 3/5=1,6=6,7=101,11=9,14=-4,25=1,30=1,74=-41,107=166600000,108=166600000,116=-2/1,2,3,8;
 4/5=1/1;
 5/5=2,38=6/2;
 8/6=1,10=2,108=20/1;
 9/41=20,42=1,48=1,70=2/14;
 6/7=2,8=2,9=2,10=2/1;
 99/5=1,9=1/99;
 Leave Link    1 at Wed Oct 24 10:45:31 2018, MaxMem=  6710886400 cpu:              37.9 elap:               1.7
 (Enter /mnt/gpfs/share/opt/gaussian/g16-A.03/g16/l101.exe)
 -------------------------------------------------------------
 Tuning input file generated by awtune with parameters: w01666
 -------------------------------------------------------------
 Structure from the checkpoint file:  "qpp1_h_tuned_td_singlet.chk"
 Charge =  0 Multiplicity = 1
 Redundant internal coordinates found in file.  (old form).
 C,0,-0.0000200698,-0.728487278,-0.0003193516
 C,0,-1.2230379158,-1.4496444005,0.0008224117
 C,0,-2.4987501213,-0.7197117452,0.0016993557
 C,0,-2.4987104552,0.7198494314,-0.0023367137
 C,0,-1.2229580203,1.4497117876,-0.0014615295
 C,0,0.0000200698,0.728487278,-0.0003193516
 C,0,-4.7932455115,0.7152265406,-0.0066642518
 C,0,-4.7932849048,-0.7149623633,0.006030332
 C,0,-6.0380058606,-1.400351389,-0.000754042
 H,0,-6.012493976,-2.4919391895,-0.0405653531
 C,0,-6.0379286861,1.400684177,0.0001219575
 H,0,-6.0123566291,2.4922705571,0.039933564
 N,0,-3.6324949536,1.4198236745,-0.0070160039
 N,0,-3.6325731989,-1.4196234893,0.0063804758
 C,0,1.2229580203,-1.4497117876,-0.0014615295
 C,0,1.2230379158,1.4496444005,0.0008224117
 C,0,1.2093154927,-2.8527786215,-0.0012977928
 C,0,-1.2094726771,-2.8527119822,0.0006567219
 H,0,2.1689777092,-3.3732406671,-0.0016167643
 H,0,-2.1691635774,-3.3731211388,0.0009754772
 C,0,-1.2093154927,2.8527786215,-0.0012977928
 C,0,1.2094726771,2.8527119822,0.0006567219
 H,0,-2.1689777092,3.3732406671,-0.0016167643
 H,0,2.1691635774,3.3731211388,0.0009754772
 C,0,2.4987501213,0.7197117452,0.0016993557
 C,0,2.4987104552,-0.7198494314,-0.0023367137
 C,0,4.7932849048,0.7149623633,0.006030332
 N,0,3.6325731989,1.4196234893,0.0063804758
 N,0,3.6324949536,-1.4198236745,-0.0070160039
 C,0,4.7932455115,-0.7152265406,-0.0066642518
 C,0,-7.2479404209,0.7244689779,0.008745636
 C,0,-7.2479803588,-0.7240695442,-0.0093762643
 C,0,6.0379286861,-1.400684177,0.0001219575
 C,0,6.0380058606,1.400351389,-0.000754042
 C,0,7.2479803588,0.7240695442,-0.0093762643
 C,0,7.2479404209,-0.7244689779,0.008745636
 H,0,6.0123566291,-2.4922705571,0.039933564
 H,0,6.012493976,2.4919391895,-0.0405653531
 C,0,10.804301439,-3.165174532,0.236989323
 C,0,9.8072142673,-3.4317881309,-0.7411172769
 C,0,8.6750802834,-2.6189597979,-0.8088385335
 C,0,8.5027856105,-1.5286611819,0.0732651742
 C,0,9.4916793645,-1.2758690392,1.0281995234
 C,0,10.6307559923,-2.0895964727,1.1112276298
 H,0,7.909584147,-2.8091360468,-1.5628571243
 H,0,9.3778950884,-0.4418075389,1.7230696553
 H,0,11.3836637934,-1.8750904496,1.8707619582
 C,0,9.4917513447,1.2753461709,-1.028826784
 C,0,8.5028699093,1.5281926966,-0.0738940811
 C,0,8.6752233189,2.6184817022,0.8082100523
 C,0,9.8074012495,3.4312488896,0.7404894558
 C,0,10.8044749667,3.1645809041,-0.2376160077
 C,0,10.6308728537,2.0890109695,-1.1118530625
 H,0,9.3779227107,0.4412904294,-1.7236965701
 H,0,7.9097371402,2.8086993175,1.5622283176
 H,0,11.3837715131,1.8744617512,-1.8713842608
 C,0,-8.5028699093,-1.5281926966,-0.0738940811
 C,0,-9.4917513447,-1.2753461709,-1.028826784
 C,0,-8.6752233189,-2.6184817022,0.8082100523
 C,0,-10.6308728537,-2.0890109695,-1.1118530625
 H,0,-9.3779227107,-0.4412904294,-1.7236965701
 C,0,-9.8074012495,-3.4312488896,0.7404894558
 H,0,-7.9097371402,-2.8086993175,1.5622283176
 C,0,-10.8044749667,-3.1645809041,-0.2376160077
 H,0,-11.3837715131,-1.8744617512,-1.8713842608
 C,0,-8.5027856105,1.5286611819,0.0732651742
 C,0,-9.4916793645,1.2758690392,1.0281995234
 C,0,-8.6750802834,2.6189597979,-0.8088385335
 C,0,-10.6307559923,2.0895964727,1.1112276298
 H,0,-9.3778950884,0.4418075389,1.7230696553
 C,0,-9.8072142673,3.4317881309,-0.7411172769
 H,0,-7.909584147,2.8091360468,-1.5628571243
 C,0,-10.804301439,3.165174532,0.236989323
 H,0,-11.3836637934,1.8750904496,1.8707619582
 O,0,11.8750259515,4.0122885995,-0.2280216638
 O,0,10.0619339254,4.4961651242,1.5578660251
 C,0,12.8900451651,3.7755422196,-1.1940716105
 C,0,9.0821438089,4.8013081366,2.5408816637
 H,0,12.5026826565,3.864416296,-2.2250833412
 H,0,13.6509358059,4.5486487467,-1.0263283111
 H,0,13.3502403693,2.778758182,-1.0687098648
 H,0,9.4606737311,5.679198059,3.080109938
 H,0,8.1065317209,5.0474866657,2.08419821
 H,0,8.9435159692,3.968645682,3.2540989315
 O,0,10.0616891871,-4.4967191882,-1.5584925546
 O,0,11.8748046967,-4.0129424949,0.2273981159
 O,0,-10.0616891871,4.4967191882,-1.5584925546
 O,0,-11.8748046967,4.0129424949,0.2273981159
 O,0,-10.0619339254,-4.4961651242,1.5578660251
 O,0,-11.8750259515,-4.0122885995,-0.2280216638
 C,0,12.8898675431,-3.7762110386,1.193405925
 C,0,9.0819008368,-4.8017862661,-2.5415334494
 C,0,-9.0821438089,-4.8013081366,2.5408816637
 C,0,-12.8900451651,-3.7755422196,-1.1940716105
 C,0,-12.8898675431,3.7762110386,1.193405925
 C,0,-9.0819008368,4.8017862661,-2.5415334494
 H,0,13.3500755752,-2.7794360712,1.0680209842
 H,0,12.5025457587,-3.8650736809,2.2244341498
 H,0,13.650736443,-4.549333101,1.0256356398
 H,0,9.4603942973,-5.6796827819,-3.0807765843
 H,0,8.1062674449,-5.0479254618,-2.0848740648
 H,0,8.9433295317,-3.9690984849,-3.2547320038
 H,0,-8.9435159692,-3.968645682,3.2540989315
 H,0,-9.4606737311,-5.679198059,3.080109938
 H,0,-8.1065317209,-5.0474866657,2.08419821
 H,0,-13.6509358059,-4.5486487467,-1.0263283111
 H,0,-12.5026826565,-3.864416296,-2.2250833412
 H,0,-13.3502403693,-2.778758182,-1.0687098648
 H,0,-13.3500755752,2.7794360712,1.0680209842
 H,0,-12.5025457587,3.8650736809,2.2244341498
 H,0,-13.650736443,4.549333101,1.0256356398
 H,0,-8.9433295317,3.9690984849,-3.2547320038
 H,0,-9.4603942973,5.6796827819,-3.0807765843
 H,0,-8.1062674449,5.0479254618,-2.0848740648
 C,0,-0.000097772,-3.5488989079,-0.0003211492
 H,0,-0.000127879,-4.6417154756,-0.0003222387
 C,0,0.000097772,3.5488989079,-0.0003211492
 H,0,0.000127879,4.6417154756,-0.0003222387
 Recover connectivity data from disk.
 ITRead=  0  0  0  0  0  0  0  0  0  0  0  0  0  0  0  0  0  0  0  0
 ITRead=  0  0  0  0  0  0  0  0  0  0  0  0  0  0  0  0  0  0  0  0
 ITRead=  0  0  0  0  0  0  0  0  0  0  0  0  0  0  0  0  0  0  0  0
 ITRead=  0  0  0  0  0  0  0  0  0  0  0  0  0  0  0  0  0  0  0  0
 ITRead=  0  0  0  0  0  0  0  0  0  0  0  0  0  0  0  0  0  0  0  0
 ITRead=  0  0  0  0  0  0  0  0  0  0  0  0  0  0  0  0  0  0
 MicOpt= -1 -1 -1 -1 -1 -1 -1 -1 -1 -1 -1 -1 -1 -1 -1 -1 -1 -1 -1 -1
 MicOpt= -1 -1 -1 -1 -1 -1 -1 -1 -1 -1 -1 -1 -1 -1 -1 -1 -1 -1 -1 -1
 MicOpt= -1 -1 -1 -1 -1 -1 -1 -1 -1 -1 -1 -1 -1 -1 -1 -1 -1 -1 -1 -1
 MicOpt= -1 -1 -1 -1 -1 -1 -1 -1 -1 -1 -1 -1 -1 -1 -1 -1 -1 -1 -1 -1
 MicOpt= -1 -1 -1 -1 -1 -1 -1 -1 -1 -1 -1 -1 -1 -1 -1 -1 -1 -1 -1 -1
 MicOpt= -1 -1 -1 -1 -1 -1 -1 -1 -1 -1 -1 -1 -1 -1 -1 -1 -1 -1
                           ----------------------------
                           !    Current Parameters    !
                           ! (Angstroms and Degrees)  !
 --------------------------                            --------------------------
 ! Name  Definition              Value                                          !
 --------------------------------------------------------------------------------
 ! R1    R(1,2)                  1.4198                                         !
 ! R2    R(1,6)                  1.457                                          !
 ! R3    R(1,15)                 1.4198                                         !
 ! R4    R(2,3)                  1.4698                                         !
 ! R5    R(2,18)                 1.4031                                         !
 ! R6    R(3,4)                  1.4396                                         !
 ! R7    R(3,14)                 1.3325                                         !
 ! R8    R(4,5)                  1.4698                                         !
 ! R9    R(4,13)                 1.3325                                         !
 ! R10   R(5,6)                  1.4198                                         !
 ! R11   R(5,21)                 1.4031                                         !
 ! R12   R(6,16)                 1.4198                                         !
 ! R13   R(7,8)                  1.4302                                         !
 ! R14   R(7,11)                 1.421                                          !
 ! R15   R(7,13)                 1.3579                                         !
 ! R16   R(8,9)                  1.421                                          !
 ! R17   R(8,14)                 1.3579                                         !
 ! R18   R(9,10)                 1.0926                                         !
 ! R19   R(9,32)                 1.3862                                         !
 ! R20   R(11,12)                1.0926                                         !
 ! R21   R(11,31)                1.3862                                         !
 ! R22   R(15,17)                1.4031                                         !
 ! R23   R(15,26)                1.4698                                         !
 ! R24   R(16,22)                1.4031                                         !
 ! R25   R(16,25)                1.4698                                         !
 ! R26   R(17,19)                1.0917                                         !
 ! R27   R(17,115)               1.3954                                         !
 ! R28   R(18,20)                1.0917                                         !
 ! R29   R(18,115)               1.3954                                         !
 ! R30   R(21,23)                1.0917                                         !
 ! R31   R(21,117)               1.3954                                         !
 ! R32   R(22,24)                1.0917                                         !
 ! R33   R(22,117)               1.3954                                         !
 ! R34   R(25,26)                1.4396                                         !
 ! R35   R(25,28)                1.3325                                         !
 ! R36   R(26,29)                1.3325                                         !
 ! R37   R(27,28)                1.3579                                         !
 ! R38   R(27,30)                1.4302                                         !
 ! R39   R(27,34)                1.421                                          !
 ! R40   R(29,30)                1.3579                                         !
 ! R41   R(30,33)                1.421                                          !
 ! R42   R(31,32)                1.4487                                         !
 ! R43   R(31,66)                1.4918                                         !
 ! R44   R(32,57)                1.4918                                         !
 ! R45   R(33,36)                1.3862                                         !
 ! R46   R(33,37)                1.0926                                         !
 ! R47   R(34,35)                1.3862                                         !
 ! R48   R(34,38)                1.0926                                         !
 ! R49   R(35,36)                1.4487                                         !
 ! R50   R(35,49)                1.4918                                         !
 ! R51   R(36,42)                1.4918                                         !
 ! R52   R(39,40)                1.422                                          !
 ! R53   R(39,44)                1.3969                                         !
 ! R54   R(39,86)                1.3656                                         !
 ! R55   R(40,41)                1.3954                                         !
 ! R56   R(40,85)                1.3664                                         !
 ! R57   R(41,42)                1.413                                          !
 ! R58   R(41,45)                1.0912                                         !
 ! R59   R(42,43)                1.3978                                         !
 ! R60   R(43,44)                1.4023                                         !
 ! R61   R(43,46)                1.0915                                         !
 ! R62   R(44,47)                1.0908                                         !
 ! R63   R(48,49)                1.3978                                         !
 ! R64   R(48,53)                1.4023                                         !
 ! R65   R(48,54)                1.0915                                         !
 ! R66   R(49,50)                1.413                                          !
 ! R67   R(50,51)                1.3954                                         !
 ! R68   R(50,55)                1.0912                                         !
 ! R69   R(51,52)                1.422                                          !
 ! R70   R(51,76)                1.3664                                         !
 ! R71   R(52,53)                1.3969                                         !
 ! R72   R(52,75)                1.3656                                         !
 ! R73   R(53,56)                1.0908                                         !
 ! R74   R(57,58)                1.3978                                         !
 ! R75   R(57,59)                1.413                                          !
 ! R76   R(58,60)                1.4023                                         !
 ! R77   R(58,61)                1.0915                                         !
 ! R78   R(59,62)                1.3954                                         !
 ! R79   R(59,63)                1.0912                                         !
 ! R80   R(60,64)                1.3969                                         !
 ! R81   R(60,65)                1.0908                                         !
 ! R82   R(62,64)                1.422                                          !
 ! R83   R(62,89)                1.3664                                         !
 ! R84   R(64,90)                1.3656                                         !
 ! R85   R(66,67)                1.3978                                         !
 ! R86   R(66,68)                1.413                                          !
 ! R87   R(67,69)                1.4023                                         !
 ! R88   R(67,70)                1.0915                                         !
 ! R89   R(68,71)                1.3954                                         !
 ! R90   R(68,72)                1.0912                                         !
 ! R91   R(69,73)                1.3969                                         !
 ! R92   R(69,74)                1.0908                                         !
 ! R93   R(71,73)                1.422                                          !
 ! R94   R(71,87)                1.3664                                         !
 ! R95   R(73,88)                1.3656                                         !
 ! R96   R(75,77)                1.4211                                         !
 ! R97   R(76,78)                1.4211                                         !
 ! R98   R(77,79)                1.105                                          !
 ! R99   R(77,80)                1.0976                                         !
 ! R100  R(77,81)                1.105                                          !
 ! R101  R(78,82)                1.0976                                         !
 ! R102  R(78,83)                1.105                                          !
 ! R103  R(78,84)                1.1051                                         !
 ! R104  R(85,92)                1.4211                                         !
 ! R105  R(86,91)                1.4211                                         !
 ! R106  R(87,96)                1.4211                                         !
 ! R107  R(88,95)                1.4211                                         !
 ! R108  R(89,93)                1.4211                                         !
 ! R109  R(90,94)                1.4211                                         !
 ! R110  R(91,97)                1.105                                          !
 ! R111  R(91,98)                1.105                                          !
 ! R112  R(91,99)                1.0976                                         !
 ! R113  R(92,100)               1.0976                                         !
 ! R114  R(92,101)               1.105                                          !
 ! R115  R(92,102)               1.1051                                         !
 ! R116  R(93,103)               1.1051                                         !
 ! R117  R(93,104)               1.0976                                         !
 ! R118  R(93,105)               1.105                                          !
 ! R119  R(94,106)               1.0976                                         !
 ! R120  R(94,107)               1.105                                          !
 ! R121  R(94,108)               1.105                                          !
 ! R122  R(95,109)               1.105                                          !
 ! R123  R(95,110)               1.105                                          !
 ! R124  R(95,111)               1.0976                                         !
 ! R125  R(96,112)               1.1051                                         !
 ! R126  R(96,113)               1.0976                                         !
 ! R127  R(96,114)               1.105                                          !
 ! R128  R(115,116)              1.0928                                         !
 ! R129  R(117,118)              1.0928                                         !
 ! A1    A(2,1,6)              120.5275                                         !
 ! A2    A(2,1,15)             118.9451                                         !
 ! A3    A(6,1,15)             120.5275                                         !
 ! A4    A(1,2,3)              119.6969                                         !
 ! A5    A(1,2,18)             119.9719                                         !
 ! A6    A(3,2,18)             120.3311                                         !
 ! A7    A(2,3,4)              119.7754                                         !
 ! A8    A(2,3,14)             118.5356                                         !
 ! A9    A(4,3,14)             121.689                                          !
 ! A10   A(3,4,5)              119.7754                                         !
 ! A11   A(3,4,13)             121.689                                          !
 ! A12   A(5,4,13)             118.5356                                         !
 ! A13   A(4,5,6)              119.6969                                         !
 ! A14   A(4,5,21)             120.3311                                         !
 ! A15   A(6,5,21)             119.9719                                         !
 ! A16   A(1,6,5)              120.5275                                         !
 ! A17   A(1,6,16)             120.5275                                         !
 ! A18   A(5,6,16)             118.9451                                         !
 ! A19   A(8,7,11)             118.836                                          !
 ! A20   A(8,7,13)             121.2589                                         !
 ! A21   A(11,7,13)            119.8992                                         !
 ! A22   A(7,8,9)              118.836                                          !
 ! A23   A(7,8,14)             121.2589                                         !
 ! A24   A(9,8,14)             119.8992                                         !
 ! A25   A(8,9,10)             117.491                                          !
 ! A26   A(8,9,32)             121.9603                                         !
 ! A27   A(10,9,32)            120.5025                                         !
 ! A28   A(7,11,12)            117.4911                                         !
 ! A29   A(7,11,31)            121.9603                                         !
 ! A30   A(12,11,31)           120.5025                                         !
 ! A31   A(4,13,7)             117.0509                                         !
 ! A32   A(3,14,8)             117.0509                                         !
 ! A33   A(1,15,17)            119.9719                                         !
 ! A34   A(1,15,26)            119.6969                                         !
 ! A35   A(17,15,26)           120.3311                                         !
 ! A36   A(6,16,22)            119.9719                                         !
 ! A37   A(6,16,25)            119.6969                                         !
 ! A38   A(22,16,25)           120.3311                                         !
 ! A39   A(15,17,19)           117.9156                                         !
 ! A40   A(15,17,115)          120.4812                                         !
 ! A41   A(19,17,115)          121.6032                                         !
 ! A42   A(2,18,20)            117.9156                                         !
 ! A43   A(2,18,115)           120.4812                                         !
 ! A44   A(20,18,115)          121.6032                                         !
 ! A45   A(5,21,23)            117.9156                                         !
 ! A46   A(5,21,117)           120.4812                                         !
 ! A47   A(23,21,117)          121.6032                                         !
 ! A48   A(16,22,24)           117.9156                                         !
 ! A49   A(16,22,117)          120.4812                                         !
 ! A50   A(24,22,117)          121.6032                                         !
 ! A51   A(16,25,26)           119.7754                                         !
 ! A52   A(16,25,28)           118.5356                                         !
 ! A53   A(26,25,28)           121.689                                          !
 ! A54   A(15,26,25)           119.7754                                         !
 ! A55   A(15,26,29)           118.5356                                         !
 ! A56   A(25,26,29)           121.689                                          !
 ! A57   A(28,27,30)           121.2589                                         !
 ! A58   A(28,27,34)           119.8992                                         !
 ! A59   A(30,27,34)           118.836                                          !
 ! A60   A(25,28,27)           117.0509                                         !
 ! A61   A(26,29,30)           117.0509                                         !
 ! A62   A(27,30,29)           121.2589                                         !
 ! A63   A(27,30,33)           118.836                                          !
 ! A64   A(29,30,33)           119.8992                                         !
 ! A65   A(11,31,32)           119.192                                          !
 ! A66   A(11,31,66)           118.135                                          !
 ! A67   A(32,31,66)           122.6526                                         !
 ! A68   A(9,32,31)            119.192                                          !
 ! A69   A(9,32,57)            118.135                                          !
 ! A70   A(31,32,57)           122.6526                                         !
 ! A71   A(30,33,36)           121.9603                                         !
 ! A72   A(30,33,37)           117.4911                                         !
 ! A73   A(36,33,37)           120.5025                                         !
 ! A74   A(27,34,35)           121.9603                                         !
 ! A75   A(27,34,38)           117.491                                          !
 ! A76   A(35,34,38)           120.5025                                         !
 ! A77   A(34,35,36)           119.192                                          !
 ! A78   A(34,35,49)           118.135                                          !
 ! A79   A(36,35,49)           122.6526                                         !
 ! A80   A(33,36,35)           119.192                                          !
 ! A81   A(33,36,42)           118.135                                          !
 ! A82   A(35,36,42)           122.6526                                         !
 ! A83   A(40,39,44)           119.1929                                         !
 ! A84   A(40,39,86)           115.37                                           !
 ! A85   A(44,39,86)           125.437                                          !
 ! A86   A(39,40,41)           119.5442                                         !
 ! A87   A(39,40,85)           115.279                                          !
 ! A88   A(41,40,85)           125.1763                                         !
 ! A89   A(40,41,42)           121.2067                                         !
 ! A90   A(40,41,45)           120.0796                                         !
 ! A91   A(42,41,45)           118.7064                                         !
 ! A92   A(36,42,41)           119.4409                                         !
 ! A93   A(36,42,43)           121.8136                                         !
 ! A94   A(41,42,43)           118.6716                                         !
 ! A95   A(42,43,44)           120.6757                                         !
 ! A96   A(42,43,46)           119.958                                          !
 ! A97   A(44,43,46)           119.3651                                         !
 ! A98   A(39,44,43)           120.7076                                         !
 ! A99   A(39,44,47)           120.0969                                         !
 ! A100  A(43,44,47)           119.1954                                         !
 ! A101  A(49,48,53)           120.6757                                         !
 ! A102  A(49,48,54)           119.958                                          !
 ! A103  A(53,48,54)           119.3651                                         !
 ! A104  A(35,49,48)           121.8136                                         !
 ! A105  A(35,49,50)           119.4409                                         !
 ! A106  A(48,49,50)           118.6716                                         !
 ! A107  A(49,50,51)           121.2067                                         !
 ! A108  A(49,50,55)           118.7064                                         !
 ! A109  A(51,50,55)           120.0796                                         !
 ! A110  A(50,51,52)           119.5442                                         !
 ! A111  A(50,51,76)           125.1763                                         !
 ! A112  A(52,51,76)           115.279                                          !
 ! A113  A(51,52,53)           119.1929                                         !
 ! A114  A(51,52,75)           115.37                                           !
 ! A115  A(53,52,75)           125.437                                          !
 ! A116  A(48,53,52)           120.7076                                         !
 ! A117  A(48,53,56)           119.1954                                         !
 ! A118  A(52,53,56)           120.0969                                         !
 ! A119  A(32,57,58)           121.8136                                         !
 ! A120  A(32,57,59)           119.4409                                         !
 ! A121  A(58,57,59)           118.6716                                         !
 ! A122  A(57,58,60)           120.6757                                         !
 ! A123  A(57,58,61)           119.958                                          !
 ! A124  A(60,58,61)           119.3651                                         !
 ! A125  A(57,59,62)           121.2067                                         !
 ! A126  A(57,59,63)           118.7064                                         !
 ! A127  A(62,59,63)           120.0796                                         !
 ! A128  A(58,60,64)           120.7076                                         !
 ! A129  A(58,60,65)           119.1954                                         !
 ! A130  A(64,60,65)           120.0969                                         !
 ! A131  A(59,62,64)           119.5442                                         !
 ! A132  A(59,62,89)           125.1763                                         !
 ! A133  A(64,62,89)           115.279                                          !
 ! A134  A(60,64,62)           119.1929                                         !
 ! A135  A(60,64,90)           125.437                                          !
 ! A136  A(62,64,90)           115.37                                           !
 ! A137  A(31,66,67)           121.8136                                         !
 ! A138  A(31,66,68)           119.4409                                         !
 ! A139  A(67,66,68)           118.6716                                         !
 ! A140  A(66,67,69)           120.6757                                         !
 ! A141  A(66,67,70)           119.958                                          !
 ! A142  A(69,67,70)           119.3651                                         !
 ! A143  A(66,68,71)           121.2067                                         !
 ! A144  A(66,68,72)           118.7064                                         !
 ! A145  A(71,68,72)           120.0796                                         !
 ! A146  A(67,69,73)           120.7076                                         !
 ! A147  A(67,69,74)           119.1954                                         !
 ! A148  A(73,69,74)           120.0969                                         !
 ! A149  A(68,71,73)           119.5442                                         !
 ! A150  A(68,71,87)           125.1763                                         !
 ! A151  A(73,71,87)           115.279                                          !
 ! A152  A(69,73,71)           119.1929                                         !
 ! A153  A(69,73,88)           125.437                                          !
 ! A154  A(71,73,88)           115.37                                           !
 ! A155  A(52,75,77)           116.8557                                         !
 ! A156  A(51,76,78)           116.9189                                         !
 ! A157  A(75,77,79)           111.7465                                         !
 ! A158  A(75,77,80)           105.8963                                         !
 ! A159  A(75,77,81)           111.753                                          !
 ! A160  A(79,77,80)           109.2058                                         !
 ! A161  A(79,77,81)           108.9296                                         !
 ! A162  A(80,77,81)           109.2275                                         !
 ! A163  A(76,78,82)           105.8908                                         !
 ! A164  A(76,78,83)           111.7587                                         !
 ! A165  A(76,78,84)           111.7863                                         !
 ! A166  A(82,78,83)           109.2288                                         !
 ! A167  A(82,78,84)           109.1987                                         !
 ! A168  A(83,78,84)           108.8958                                         !
 ! A169  A(40,85,92)           116.9189                                         !
 ! A170  A(39,86,91)           116.8557                                         !
 ! A171  A(71,87,96)           116.9189                                         !
 ! A172  A(73,88,95)           116.8557                                         !
 ! A173  A(62,89,93)           116.9189                                         !
 ! A174  A(64,90,94)           116.8557                                         !
 ! A175  A(86,91,97)           111.753                                          !
 ! A176  A(86,91,98)           111.7466                                         !
 ! A177  A(86,91,99)           105.8963                                         !
 ! A178  A(97,91,98)           108.9296                                         !
 ! A179  A(97,91,99)           109.2276                                         !
 ! A180  A(98,91,99)           109.2058                                         !
 ! A181  A(85,92,100)          105.8908                                         !
 ! A182  A(85,92,101)          111.7587                                         !
 ! A183  A(85,92,102)          111.7863                                         !
 ! A184  A(100,92,101)         109.2288                                         !
 ! A185  A(100,92,102)         109.1987                                         !
 ! A186  A(101,92,102)         108.8958                                         !
 ! A187  A(89,93,103)          111.7863                                         !
 ! A188  A(89,93,104)          105.8908                                         !
 ! A189  A(89,93,105)          111.7587                                         !
 ! A190  A(103,93,104)         109.1987                                         !
 ! A191  A(103,93,105)         108.8958                                         !
 ! A192  A(104,93,105)         109.2288                                         !
 ! A193  A(90,94,106)          105.8963                                         !
 ! A194  A(90,94,107)          111.7465                                         !
 ! A195  A(90,94,108)          111.753                                          !
 ! A196  A(106,94,107)         109.2058                                         !
 ! A197  A(106,94,108)         109.2275                                         !
 ! A198  A(107,94,108)         108.9296                                         !
 ! A199  A(88,95,109)          111.753                                          !
 ! A200  A(88,95,110)          111.7466                                         !
 ! A201  A(88,95,111)          105.8963                                         !
 ! A202  A(109,95,110)         108.9296                                         !
 ! A203  A(109,95,111)         109.2276                                         !
 ! A204  A(110,95,111)         109.2058                                         !
 ! A205  A(87,96,112)          111.7863                                         !
 ! A206  A(87,96,113)          105.8908                                         !
 ! A207  A(87,96,114)          111.7587                                         !
 ! A208  A(112,96,113)         109.1987                                         !
 ! A209  A(112,96,114)         108.8958                                         !
 ! A210  A(113,96,114)         109.2288                                         !
 ! A211  A(17,115,18)          120.1487                                         !
 ! A212  A(17,115,116)         119.9257                                         !
 ! A213  A(18,115,116)         119.9257                                         !
 ! A214  A(21,117,22)          120.1487                                         !
 ! A215  A(21,117,118)         119.9257                                         !
 ! A216  A(22,117,118)         119.9257                                         !
 ! D1    D(6,1,2,3)              0.0141                                         !
 ! D2    D(6,1,2,18)           179.9928                                         !
 ! D3    D(15,1,2,3)          -179.9859                                         !
 ! D4    D(15,1,2,18)           -0.0072                                         !
 ! D5    D(2,1,6,5)             -0.107                                          !
 ! D6    D(2,1,6,16)           179.893                                          !
 ! D7    D(15,1,6,5)           179.893                                          !
 ! D8    D(15,1,6,16)           -0.107                                          !
 ! D9    D(2,1,15,17)           -0.0071                                         !
 ! D10   D(2,1,15,26)         -179.9858                                         !
 ! D11   D(6,1,15,17)          179.9929                                         !
 ! D12   D(6,1,15,26)            0.0142                                         !
 ! D13   D(1,2,3,4)              0.1711                                         !
 ! D14   D(1,2,3,14)          -179.823                                          !
 ! D15   D(18,2,3,4)          -179.8075                                         !
 ! D16   D(18,2,3,14)            0.1984                                         !
 ! D17   D(1,2,18,20)         -179.9654                                         !
 ! D18   D(1,2,18,115)           0.0145                                         !
 ! D19   D(3,2,18,20)            0.0131                                         !
 ! D20   D(3,2,18,115)         179.993                                          !
 ! D21   D(2,3,4,5)             -0.2625                                         !
 ! D22   D(2,3,4,13)           179.7314                                         !
 ! D23   D(14,3,4,5)           179.7314                                         !
 ! D24   D(14,3,4,13)           -0.2747                                         !
 ! D25   D(2,3,14,8)          -179.9512                                         !
 ! D26   D(4,3,14,8)             0.0549                                         !
 ! D27   D(3,4,5,6)              0.171                                          !
 ! D28   D(3,4,5,21)          -179.8076                                         !
 ! D29   D(13,4,5,6)          -179.8231                                         !
 ! D30   D(13,4,5,21)            0.1983                                         !
 ! D31   D(3,4,13,7)             0.0548                                         !
 ! D32   D(5,4,13,7)          -179.9512                                         !
 ! D33   D(4,5,6,1)              0.0142                                         !
 ! D34   D(4,5,6,16)          -179.9858                                         !
 ! D35   D(21,5,6,1)           179.9929                                         !
 ! D36   D(21,5,6,16)           -0.0071                                         !
 ! D37   D(4,5,21,23)            0.0131                                         !
 ! D38   D(4,5,21,117)         179.993                                          !
 ! D39   D(6,5,21,23)         -179.9654                                         !
 ! D40   D(6,5,21,117)           0.0145                                         !
 ! D41   D(1,6,16,22)          179.9928                                         !
 ! D42   D(1,6,16,25)            0.0141                                         !
 ! D43   D(5,6,16,22)           -0.0072                                         !
 ! D44   D(5,6,16,25)         -179.9859                                         !
 ! D45   D(11,7,8,9)             1.1847                                         !
 ! D46   D(11,7,8,14)         -179.699                                          !
 ! D47   D(13,7,8,9)          -179.699                                          !
 ! D48   D(13,7,8,14)           -0.5828                                         !
 ! D49   D(8,7,11,12)          177.0572                                         !
 ! D50   D(8,7,11,31)           -0.4818                                         !
 ! D51   D(13,7,11,12)          -2.0714                                         !
 ! D52   D(13,7,11,31)        -179.6104                                         !
 ! D53   D(8,7,13,4)             0.3524                                         !
 ! D54   D(11,7,13,4)          179.4594                                         !
 ! D55   D(7,8,9,10)           177.0572                                         !
 ! D56   D(7,8,9,32)            -0.4818                                         !
 ! D57   D(14,8,9,10)           -2.0714                                         !
 ! D58   D(14,8,9,32)         -179.6103                                         !
 ! D59   D(7,8,14,3)             0.3524                                         !
 ! D60   D(9,8,14,3)           179.4594                                         !
 ! D61   D(8,9,32,31)           -0.9201                                         !
 ! D62   D(8,9,32,57)          177.4798                                         !
 ! D63   D(10,9,32,31)        -178.3863                                         !
 ! D64   D(10,9,32,57)           0.0136                                         !
 ! D65   D(7,11,31,32)          -0.9201                                         !
 ! D66   D(7,11,31,66)         177.4798                                         !
 ! D67   D(12,11,31,32)       -178.3863                                         !
 ! D68   D(12,11,31,66)          0.0136                                         !
 ! D69   D(1,15,17,19)        -179.9654                                         !
 ! D70   D(1,15,17,115)          0.0145                                         !
 ! D71   D(26,15,17,19)          0.0131                                         !
 ! D72   D(26,15,17,115)       179.993                                          !
 ! D73   D(1,15,26,25)           0.171                                          !
 ! D74   D(1,15,26,29)        -179.8231                                         !
 ! D75   D(17,15,26,25)       -179.8076                                         !
 ! D76   D(17,15,26,29)          0.1983                                         !
 ! D77   D(6,16,22,24)        -179.9654                                         !
 ! D78   D(6,16,22,117)          0.0145                                         !
 ! D79   D(25,16,22,24)          0.0131                                         !
 ! D80   D(25,16,22,117)       179.993                                          !
 ! D81   D(6,16,25,26)           0.1711                                         !
 ! D82   D(6,16,25,28)        -179.823                                          !
 ! D83   D(22,16,25,26)       -179.8075                                         !
 ! D84   D(22,16,25,28)          0.1984                                         !
 ! D85   D(15,17,115,18)        -0.0073                                         !
 ! D86   D(15,17,115,116)      179.9927                                         !
 ! D87   D(19,17,115,18)       179.9718                                         !
 ! D88   D(19,17,115,116)       -0.0282                                         !
 ! D89   D(2,18,115,17)         -0.0073                                         !
 ! D90   D(2,18,115,116)       179.9927                                         !
 ! D91   D(20,18,115,17)       179.9719                                         !
 ! D92   D(20,18,115,116)       -0.0281                                         !
 ! D93   D(5,21,117,22)         -0.0073                                         !
 ! D94   D(5,21,117,118)       179.9927                                         !
 ! D95   D(23,21,117,22)       179.9718                                         !
 ! D96   D(23,21,117,118)       -0.0282                                         !
 ! D97   D(16,22,117,21)        -0.0073                                         !
 ! D98   D(16,22,117,118)      179.9927                                         !
 ! D99   D(24,22,117,21)       179.9719                                         !
 ! D100  D(24,22,117,118)       -0.0281                                         !
 ! D101  D(16,25,26,15)         -0.2625                                         !
 ! D102  D(16,25,26,29)        179.7314                                         !
 ! D103  D(28,25,26,15)        179.7314                                         !
 ! D104  D(28,25,26,29)         -0.2747                                         !
 ! D105  D(16,25,28,27)       -179.9512                                         !
 ! D106  D(26,25,28,27)          0.0549                                         !
 ! D107  D(15,26,29,30)       -179.9512                                         !
 ! D108  D(25,26,29,30)          0.0548                                         !
 ! D109  D(30,27,28,25)          0.3524                                         !
 ! D110  D(34,27,28,25)        179.4594                                         !
 ! D111  D(28,27,30,29)         -0.5828                                         !
 ! D112  D(28,27,30,33)       -179.699                                          !
 ! D113  D(34,27,30,29)       -179.699                                          !
 ! D114  D(34,27,30,33)          1.1847                                         !
 ! D115  D(28,27,34,35)       -179.6103                                         !
 ! D116  D(28,27,34,38)         -2.0714                                         !
 ! D117  D(30,27,34,35)         -0.4818                                         !
 ! D118  D(30,27,34,38)        177.0572                                         !
 ! D119  D(26,29,30,27)          0.3524                                         !
 ! D120  D(26,29,30,33)        179.4594                                         !
 ! D121  D(27,30,33,36)         -0.4818                                         !
 ! D122  D(27,30,33,37)        177.0572                                         !
 ! D123  D(29,30,33,36)       -179.6104                                         !
 ! D124  D(29,30,33,37)         -2.0714                                         !
 ! D125  D(11,31,32,9)           1.6176                                         !
 ! D126  D(11,31,32,57)       -176.7065                                         !
 ! D127  D(66,31,32,9)        -176.7064                                         !
 ! D128  D(66,31,32,57)          4.9695                                         !
 ! D129  D(11,31,66,67)       -128.0119                                         !
 ! D130  D(11,31,66,68)         48.8202                                         !
 ! D131  D(32,31,66,67)         50.3289                                         !
 ! D132  D(32,31,66,68)       -132.8389                                         !
 ! D133  D(9,32,57,58)        -128.012                                          !
 ! D134  D(9,32,57,59)          48.8202                                         !
 ! D135  D(31,32,57,58)         50.3289                                         !
 ! D136  D(31,32,57,59)       -132.8389                                         !
 ! D137  D(30,33,36,35)         -0.9201                                         !
 ! D138  D(30,33,36,42)        177.4798                                         !
 ! D139  D(37,33,36,35)       -178.3863                                         !
 ! D140  D(37,33,36,42)          0.0136                                         !
 ! D141  D(27,34,35,36)         -0.9201                                         !
 ! D142  D(27,34,35,49)        177.4798                                         !
 ! D143  D(38,34,35,36)       -178.3863                                         !
 ! D144  D(38,34,35,49)          0.0136                                         !
 ! D145  D(34,35,36,33)          1.6176                                         !
 ! D146  D(34,35,36,42)       -176.7064                                         !
 ! D147  D(49,35,36,33)       -176.7065                                         !
 ! D148  D(49,35,36,42)          4.9695                                         !
 ! D149  D(34,35,49,48)       -128.012                                          !
 ! D150  D(34,35,49,50)         48.8202                                         !
 ! D151  D(36,35,49,48)         50.3289                                         !
 ! D152  D(36,35,49,50)       -132.8389                                         !
 ! D153  D(33,36,42,41)         48.8202                                         !
 ! D154  D(33,36,42,43)       -128.0119                                         !
 ! D155  D(35,36,42,41)       -132.8389                                         !
 ! D156  D(35,36,42,43)         50.3289                                         !
 ! D157  D(44,39,40,41)         -0.133                                          !
 ! D158  D(44,39,40,85)        179.6322                                         !
 ! D159  D(86,39,40,41)        179.988                                          !
 ! D160  D(86,39,40,85)         -0.2468                                         !
 ! D161  D(40,39,44,43)         -0.2052                                         !
 ! D162  D(40,39,44,47)        179.6598                                         !
 ! D163  D(86,39,44,43)        179.6606                                         !
 ! D164  D(86,39,44,47)         -0.4744                                         !
 ! D165  D(40,39,86,91)       -179.9218                                         !
 ! D166  D(44,39,86,91)          0.2078                                         !
 ! D167  D(39,40,41,42)          0.3422                                         !
 ! D168  D(39,40,41,45)        179.3485                                         !
 ! D169  D(85,40,41,42)       -179.398                                          !
 ! D170  D(85,40,41,45)         -0.3917                                         !
 ! D171  D(39,40,85,92)        179.4572                                         !
 ! D172  D(41,40,85,92)         -0.7927                                         !
 ! D173  D(40,41,42,36)       -177.141                                          !
 ! D174  D(40,41,42,43)         -0.2091                                         !
 ! D175  D(45,41,42,36)          3.8393                                         !
 ! D176  D(45,41,42,43)       -179.2287                                         !
 ! D177  D(36,42,43,44)        176.7221                                         !
 ! D178  D(36,42,43,46)         -2.8724                                         !
 ! D179  D(41,42,43,44)         -0.1337                                         !
 ! D180  D(41,42,43,46)       -179.7281                                         !
 ! D181  D(42,43,44,39)          0.3419                                         !
 ! D182  D(42,43,44,47)       -179.5243                                         !
 ! D183  D(46,43,44,39)        179.9388                                         !
 ! D184  D(46,43,44,47)          0.0726                                         !
 ! D185  D(53,48,49,35)        176.7221                                         !
 ! D186  D(53,48,49,50)         -0.1337                                         !
 ! D187  D(54,48,49,35)         -2.8725                                         !
 ! D188  D(54,48,49,50)       -179.7282                                         !
 ! D189  D(49,48,53,52)          0.3418                                         !
 ! D190  D(49,48,53,56)       -179.5245                                         !
 ! D191  D(54,48,53,52)        179.9387                                         !
 ! D192  D(54,48,53,56)          0.0724                                         !
 ! D193  D(35,49,50,51)       -177.141                                          !
 ! D194  D(35,49,50,55)          3.8394                                         !
 ! D195  D(48,49,50,51)         -0.209                                          !
 ! D196  D(48,49,50,55)       -179.2286                                         !
 ! D197  D(49,50,51,52)          0.3422                                         !
 ! D198  D(49,50,51,76)       -179.398                                          !
 ! D199  D(55,50,51,52)        179.3485                                         !
 ! D200  D(55,50,51,76)         -0.3916                                         !
 ! D201  D(50,51,52,53)         -0.1331                                         !
 ! D202  D(50,51,52,75)        179.9882                                         !
 ! D203  D(76,51,52,53)        179.6321                                         !
 ! D204  D(76,51,52,75)         -0.2467                                         !
 ! D205  D(50,51,76,78)         -0.7945                                         !
 ! D206  D(52,51,76,78)        179.4555                                         !
 ! D207  D(51,52,53,48)         -0.2051                                         !
 ! D208  D(51,52,53,56)        179.66                                           !
 ! D209  D(75,52,53,48)        179.6605                                         !
 ! D210  D(75,52,53,56)         -0.4744                                         !
 ! D211  D(51,52,75,77)       -179.9188                                         !
 ! D212  D(53,52,75,77)          0.2111                                         !
 ! D213  D(32,57,58,60)        176.7221                                         !
 ! D214  D(32,57,58,61)         -2.8725                                         !
 ! D215  D(59,57,58,60)         -0.1337                                         !
 ! D216  D(59,57,58,61)       -179.7282                                         !
 ! D217  D(32,57,59,62)       -177.141                                          !
 ! D218  D(32,57,59,63)          3.8394                                         !
 ! D219  D(58,57,59,62)         -0.209                                          !
 ! D220  D(58,57,59,63)       -179.2286                                         !
 ! D221  D(57,58,60,64)          0.3418                                         !
 ! D222  D(57,58,60,65)       -179.5245                                         !
 ! D223  D(61,58,60,64)        179.9387                                         !
 ! D224  D(61,58,60,65)          0.0724                                         !
 ! D225  D(57,59,62,64)          0.3422                                         !
 ! D226  D(57,59,62,89)       -179.398                                          !
 ! D227  D(63,59,62,64)        179.3485                                         !
 ! D228  D(63,59,62,89)         -0.3916                                         !
 ! D229  D(58,60,64,62)         -0.2051                                         !
 ! D230  D(58,60,64,90)        179.6605                                         !
 ! D231  D(65,60,64,62)        179.66                                           !
 ! D232  D(65,60,64,90)         -0.4744                                         !
 ! D233  D(59,62,64,60)         -0.1331                                         !
 ! D234  D(59,62,64,90)        179.9882                                         !
 ! D235  D(89,62,64,60)        179.6321                                         !
 ! D236  D(89,62,64,90)         -0.2467                                         !
 ! D237  D(59,62,89,93)         -0.7945                                         !
 ! D238  D(64,62,89,93)        179.4555                                         !
 ! D239  D(60,64,90,94)          0.2111                                         !
 ! D240  D(62,64,90,94)       -179.9188                                         !
 ! D241  D(31,66,67,69)        176.7221                                         !
 ! D242  D(31,66,67,70)         -2.8724                                         !
 ! D243  D(68,66,67,69)         -0.1337                                         !
 ! D244  D(68,66,67,70)       -179.7281                                         !
 ! D245  D(31,66,68,71)       -177.141                                          !
 ! D246  D(31,66,68,72)          3.8393                                         !
 ! D247  D(67,66,68,71)         -0.2091                                         !
 ! D248  D(67,66,68,72)       -179.2287                                         !
 ! D249  D(66,67,69,73)          0.3419                                         !
 ! D250  D(66,67,69,74)       -179.5243                                         !
 ! D251  D(70,67,69,73)        179.9388                                         !
 ! D252  D(70,67,69,74)          0.0726                                         !
 ! D253  D(66,68,71,73)          0.3422                                         !
 ! D254  D(66,68,71,87)       -179.398                                          !
 ! D255  D(72,68,71,73)        179.3485                                         !
 ! D256  D(72,68,71,87)         -0.3917                                         !
 ! D257  D(67,69,73,71)         -0.2052                                         !
 ! D258  D(67,69,73,88)        179.6606                                         !
 ! D259  D(74,69,73,71)        179.6598                                         !
 ! D260  D(74,69,73,88)         -0.4744                                         !
 ! D261  D(68,71,73,69)         -0.133                                          !
 ! D262  D(68,71,73,88)        179.988                                          !
 ! D263  D(87,71,73,69)        179.6322                                         !
 ! D264  D(87,71,73,88)         -0.2468                                         !
 ! D265  D(68,71,87,96)         -0.7927                                         !
 ! D266  D(73,71,87,96)        179.4572                                         !
 ! D267  D(69,73,88,95)          0.2078                                         !
 ! D268  D(71,73,88,95)       -179.9218                                         !
 ! D269  D(52,75,77,79)         61.2299                                         !
 ! D270  D(52,75,77,80)       -179.9638                                         !
 ! D271  D(52,75,77,81)        -61.1279                                         !
 ! D272  D(51,76,78,82)       -179.4869                                         !
 ! D273  D(51,76,78,83)        -60.6497                                         !
 ! D274  D(51,76,78,84)         61.6972                                         !
 ! D275  D(40,85,92,100)      -179.4886                                         !
 ! D276  D(40,85,92,101)       -60.6514                                         !
 ! D277  D(40,85,92,102)        61.6955                                         !
 ! D278  D(39,86,91,97)        -61.1247                                         !
 ! D279  D(39,86,91,98)         61.2331                                         !
 ! D280  D(39,86,91,99)       -179.9607                                         !
 ! D281  D(71,87,96,112)        61.6955                                         !
 ! D282  D(71,87,96,113)      -179.4886                                         !
 ! D283  D(71,87,96,114)       -60.6514                                         !
 ! D284  D(73,88,95,109)       -61.1247                                         !
 ! D285  D(73,88,95,110)        61.2331                                         !
 ! D286  D(73,88,95,111)      -179.9607                                         !
 ! D287  D(62,89,93,103)        61.6972                                         !
 ! D288  D(62,89,93,104)      -179.4869                                         !
 ! D289  D(62,89,93,105)       -60.6497                                         !
 ! D290  D(64,90,94,106)      -179.9638                                         !
 ! D291  D(64,90,94,107)        61.2299                                         !
 ! D292  D(64,90,94,108)       -61.1279                                         !
 --------------------------------------------------------------------------------
 NAtoms=    118 NQM=      118 NQMF=       0 NMMI=      0 NMMIF=      0
                NMic=       0 NMicF=      0.
                    Isotopes and Nuclear Properties:
 (Nuclear quadrupole moments (NQMom) in fm**2, nuclear magnetic moments (NMagM)
  in nuclear magnetons)

  Atom         1           2           3           4           5           6           7           8           9          10
 IAtWgt=          12          12          12          12          12          12          12          12          12           1
 AtmWgt=  12.0000000  12.0000000  12.0000000  12.0000000  12.0000000  12.0000000  12.0000000  12.0000000  12.0000000   1.0078250
 NucSpn=           0           0           0           0           0           0           0           0           0           1
 AtZEff=   3.6000000   3.6000000   3.6000000   3.6000000   3.6000000   3.6000000   3.6000000   3.6000000   3.6000000   1.0000000
 NQMom=    0.0000000   0.0000000   0.0000000   0.0000000   0.0000000   0.0000000   0.0000000   0.0000000   0.0000000   0.0000000
 NMagM=    0.0000000   0.0000000   0.0000000   0.0000000   0.0000000   0.0000000   0.0000000   0.0000000   0.0000000   2.7928460
 AtZNuc=   6.0000000   6.0000000   6.0000000   6.0000000   6.0000000   6.0000000   6.0000000   6.0000000   6.0000000   1.0000000

  Atom        11          12          13          14          15          16          17          18          19          20
 IAtWgt=          12           1          14          14          12          12          12          12           1           1
 AtmWgt=  12.0000000   1.0078250  14.0030740  14.0030740  12.0000000  12.0000000  12.0000000  12.0000000   1.0078250   1.0078250
 NucSpn=           0           1           2           2           0           0           0           0           1           1
 AtZEff=   3.6000000   1.0000000   4.5500000   4.5500000   3.6000000   3.6000000   3.6000000   3.6000000   1.0000000   1.0000000
 NQMom=    0.0000000   0.0000000   2.0440000   2.0440000   0.0000000   0.0000000   0.0000000   0.0000000   0.0000000   0.0000000
 NMagM=    0.0000000   2.7928460   0.4037610   0.4037610   0.0000000   0.0000000   0.0000000   0.0000000   2.7928460   2.7928460
 AtZNuc=   6.0000000   1.0000000   7.0000000   7.0000000   6.0000000   6.0000000   6.0000000   6.0000000   1.0000000   1.0000000

  Atom        21          22          23          24          25          26          27          28          29          30
 IAtWgt=          12          12           1           1          12          12          12          14          14          12
 AtmWgt=  12.0000000  12.0000000   1.0078250   1.0078250  12.0000000  12.0000000  12.0000000  14.0030740  14.0030740  12.0000000
 NucSpn=           0           0           1           1           0           0           0           2           2           0
 AtZEff=   3.6000000   3.6000000   1.0000000   1.0000000   3.6000000   3.6000000   3.6000000   4.5500000   4.5500000   3.6000000
 NQMom=    0.0000000   0.0000000   0.0000000   0.0000000   0.0000000   0.0000000   0.0000000   2.0440000   2.0440000   0.0000000
 NMagM=    0.0000000   0.0000000   2.7928460   2.7928460   0.0000000   0.0000000   0.0000000   0.4037610   0.4037610   0.0000000
 AtZNuc=   6.0000000   6.0000000   1.0000000   1.0000000   6.0000000   6.0000000   6.0000000   7.0000000   7.0000000   6.0000000

  Atom        31          32          33          34          35          36          37          38          39          40
 IAtWgt=          12          12          12          12          12          12           1           1          12          12
 AtmWgt=  12.0000000  12.0000000  12.0000000  12.0000000  12.0000000  12.0000000   1.0078250   1.0078250  12.0000000  12.0000000
 NucSpn=           0           0           0           0           0           0           1           1           0           0
 AtZEff=   3.6000000   3.6000000   3.6000000   3.6000000   3.6000000   3.6000000   1.0000000   1.0000000   3.6000000   3.6000000
 NQMom=    0.0000000   0.0000000   0.0000000   0.0000000   0.0000000   0.0000000   0.0000000   0.0000000   0.0000000   0.0000000
 NMagM=    0.0000000   0.0000000   0.0000000   0.0000000   0.0000000   0.0000000   2.7928460   2.7928460   0.0000000   0.0000000
 AtZNuc=   6.0000000   6.0000000   6.0000000   6.0000000   6.0000000   6.0000000   1.0000000   1.0000000   6.0000000   6.0000000

  Atom        41          42          43          44          45          46          47          48          49          50
 IAtWgt=          12          12          12          12           1           1           1          12          12          12
 AtmWgt=  12.0000000  12.0000000  12.0000000  12.0000000   1.0078250   1.0078250   1.0078250  12.0000000  12.0000000  12.0000000
 NucSpn=           0           0           0           0           1           1           1           0           0           0
 AtZEff=   3.6000000   3.6000000   3.6000000   3.6000000   1.0000000   1.0000000   1.0000000   3.6000000   3.6000000   3.6000000
 NQMom=    0.0000000   0.0000000   0.0000000   0.0000000   0.0000000   0.0000000   0.0000000   0.0000000   0.0000000   0.0000000
 NMagM=    0.0000000   0.0000000   0.0000000   0.0000000   2.7928460   2.7928460   2.7928460   0.0000000   0.0000000   0.0000000
 AtZNuc=   6.0000000   6.0000000   6.0000000   6.0000000   1.0000000   1.0000000   1.0000000   6.0000000   6.0000000   6.0000000

  Atom        51          52          53          54          55          56          57          58          59          60
 IAtWgt=          12          12          12           1           1           1          12          12          12          12
 AtmWgt=  12.0000000  12.0000000  12.0000000   1.0078250   1.0078250   1.0078250  12.0000000  12.0000000  12.0000000  12.0000000
 NucSpn=           0           0           0           1           1           1           0           0           0           0
 AtZEff=   3.6000000   3.6000000   3.6000000   1.0000000   1.0000000   1.0000000   3.6000000   3.6000000   3.6000000   3.6000000
 NQMom=    0.0000000   0.0000000   0.0000000   0.0000000   0.0000000   0.0000000   0.0000000   0.0000000   0.0000000   0.0000000
 NMagM=    0.0000000   0.0000000   0.0000000   2.7928460   2.7928460   2.7928460   0.0000000   0.0000000   0.0000000   0.0000000
 AtZNuc=   6.0000000   6.0000000   6.0000000   1.0000000   1.0000000   1.0000000   6.0000000   6.0000000   6.0000000   6.0000000

  Atom        61          62          63          64          65          66          67          68          69          70
 IAtWgt=           1          12           1          12           1          12          12          12          12           1
 AtmWgt=   1.0078250  12.0000000   1.0078250  12.0000000   1.0078250  12.0000000  12.0000000  12.0000000  12.0000000   1.0078250
 NucSpn=           1           0           1           0           1           0           0           0           0           1
 AtZEff=   1.0000000   3.6000000   1.0000000   3.6000000   1.0000000   3.6000000   3.6000000   3.6000000   3.6000000   1.0000000
 NQMom=    0.0000000   0.0000000   0.0000000   0.0000000   0.0000000   0.0000000   0.0000000   0.0000000   0.0000000   0.0000000
 NMagM=    2.7928460   0.0000000   2.7928460   0.0000000   2.7928460   0.0000000   0.0000000   0.0000000   0.0000000   2.7928460
 AtZNuc=   1.0000000   6.0000000   1.0000000   6.0000000   1.0000000   6.0000000   6.0000000   6.0000000   6.0000000   1.0000000

  Atom        71          72          73          74          75          76          77          78          79          80
 IAtWgt=          12           1          12           1          16          16          12          12           1           1
 AtmWgt=  12.0000000   1.0078250  12.0000000   1.0078250  15.9949146  15.9949146  12.0000000  12.0000000   1.0078250   1.0078250
 NucSpn=           0           1           0           1           0           0           0           0           1           1
 AtZEff=   3.6000000   1.0000000   3.6000000   1.0000000   5.6000000   5.6000000   3.6000000   3.6000000   1.0000000   1.0000000
 NQMom=    0.0000000   0.0000000   0.0000000   0.0000000   0.0000000   0.0000000   0.0000000   0.0000000   0.0000000   0.0000000
 NMagM=    0.0000000   2.7928460   0.0000000   2.7928460   0.0000000   0.0000000   0.0000000   0.0000000   2.7928460   2.7928460
 AtZNuc=   6.0000000   1.0000000   6.0000000   1.0000000   8.0000000   8.0000000   6.0000000   6.0000000   1.0000000   1.0000000

  Atom        81          82          83          84          85          86          87          88          89          90
 IAtWgt=           1           1           1           1          16          16          16          16          16          16
 AtmWgt=   1.0078250   1.0078250   1.0078250   1.0078250  15.9949146  15.9949146  15.9949146  15.9949146  15.9949146  15.9949146
 NucSpn=           1           1           1           1           0           0           0           0           0           0
 AtZEff=   1.0000000   1.0000000   1.0000000   1.0000000   5.6000000   5.6000000   5.6000000   5.6000000   5.6000000   5.6000000
 NQMom=    0.0000000   0.0000000   0.0000000   0.0000000   0.0000000   0.0000000   0.0000000   0.0000000   0.0000000   0.0000000
 NMagM=    2.7928460   2.7928460   2.7928460   2.7928460   0.0000000   0.0000000   0.0000000   0.0000000   0.0000000   0.0000000
 AtZNuc=   1.0000000   1.0000000   1.0000000   1.0000000   8.0000000   8.0000000   8.0000000   8.0000000   8.0000000   8.0000000

  Atom        91          92          93          94          95          96          97          98          99         100
 IAtWgt=          12          12          12          12          12          12           1           1           1           1
 AtmWgt=  12.0000000  12.0000000  12.0000000  12.0000000  12.0000000  12.0000000   1.0078250   1.0078250   1.0078250   1.0078250
 NucSpn=           0           0           0           0           0           0           1           1           1           1
 AtZEff=   3.6000000   3.6000000   3.6000000   3.6000000   3.6000000   3.6000000   1.0000000   1.0000000   1.0000000   1.0000000
 NQMom=    0.0000000   0.0000000   0.0000000   0.0000000   0.0000000   0.0000000   0.0000000   0.0000000   0.0000000   0.0000000
 NMagM=    0.0000000   0.0000000   0.0000000   0.0000000   0.0000000   0.0000000   2.7928460   2.7928460   2.7928460   2.7928460
 AtZNuc=   6.0000000   6.0000000   6.0000000   6.0000000   6.0000000   6.0000000   1.0000000   1.0000000   1.0000000   1.0000000

  Atom       101         102         103         104         105         106         107         108         109         110
 IAtWgt=           1           1           1           1           1           1           1           1           1           1
 AtmWgt=   1.0078250   1.0078250   1.0078250   1.0078250   1.0078250   1.0078250   1.0078250   1.0078250   1.0078250   1.0078250
 NucSpn=           1           1           1           1           1           1           1           1           1           1
 AtZEff=   1.0000000   1.0000000   1.0000000   1.0000000   1.0000000   1.0000000   1.0000000   1.0000000   1.0000000   1.0000000
 NQMom=    0.0000000   0.0000000   0.0000000   0.0000000   0.0000000   0.0000000   0.0000000   0.0000000   0.0000000   0.0000000
 NMagM=    2.7928460   2.7928460   2.7928460   2.7928460   2.7928460   2.7928460   2.7928460   2.7928460   2.7928460   2.7928460
 AtZNuc=   1.0000000   1.0000000   1.0000000   1.0000000   1.0000000   1.0000000   1.0000000   1.0000000   1.0000000   1.0000000

  Atom       111         112         113         114         115         116         117         118
 IAtWgt=           1           1           1           1          12           1          12           1
 AtmWgt=   1.0078250   1.0078250   1.0078250   1.0078250  12.0000000   1.0078250  12.0000000   1.0078250
 NucSpn=           1           1           1           1           0           1           0           1
 AtZEff=   1.0000000   1.0000000   1.0000000   1.0000000   3.6000000   1.0000000   3.6000000   1.0000000
 NQMom=    0.0000000   0.0000000   0.0000000   0.0000000   0.0000000   0.0000000   0.0000000   0.0000000
 NMagM=    2.7928460   2.7928460   2.7928460   2.7928460   0.0000000   2.7928460   0.0000000   2.7928460
 AtZNuc=   1.0000000   1.0000000   1.0000000   1.0000000   6.0000000   1.0000000   6.0000000   1.0000000
 Leave Link  101 at Wed Oct 24 10:45:32 2018, MaxMem=  6710886400 cpu:              12.0 elap:               0.5
 (Enter /mnt/gpfs/share/opt/gaussian/g16-A.03/g16/l202.exe)
 Stoichiometry    C60H46N4O8
 Framework group  C2[X(C60H46N4O8)]
 Deg. of freedom   175
 Full point group                 C2      NOp   2
 RotChk:  IX=3 Diff= 3.35D-16
 Largest Abelian subgroup         C2      NOp   2
 Largest concise Abelian subgroup C2      NOp   2
                         Standard orientation:                         
 ---------------------------------------------------------------------
 Center     Atomic      Atomic             Coordinates (Angstroms)
 Number     Number       Type             X           Y           Z
 ---------------------------------------------------------------------
      1          6           0       -0.728487    0.000000    0.000001
      2          6           0       -1.449678   -1.222998   -0.001140
      3          6           0       -0.719781   -2.498730   -0.002017
      4          6           0        0.719781   -2.498730    0.002019
      5          6           0        1.449678   -1.222998    0.001144
      6          6           0        0.728487   -0.000000    0.000001
      7          6           0        0.715094   -4.793265    0.006346
      8          6           0       -0.715094   -4.793265   -0.006348
      9          6           0       -1.400518   -6.037967    0.000436
     10          1           0       -2.492105   -6.012425    0.040247
     11          6           0        1.400518   -6.037967   -0.000440
     12          1           0        2.492105   -6.012425   -0.040251
     13          7           0        1.419724   -3.632534    0.006698
     14          7           0       -1.419724   -3.632534   -0.006698
     15          6           0       -1.449678    1.222998    0.001144
     16          6           0        1.449678    1.222998   -0.001140
     17          6           0       -2.852745    1.209394    0.000980
     18          6           0       -2.852745   -1.209394   -0.000975
     19          1           0       -3.373181    2.169071    0.001299
     20          1           0       -3.373181   -2.169071   -0.001293
     21          6           0        2.852745   -1.209394    0.000980
     22          6           0        2.852745    1.209394   -0.000975
     23          1           0        3.373181   -2.169071    0.001299
     24          1           0        3.373181    2.169071   -0.001293
     25          6           0        0.719781    2.498730   -0.002017
     26          6           0       -0.719781    2.498730    0.002019
     27          6           0        0.715094    4.793265   -0.006348
     28          7           0        1.419724    3.632534   -0.006698
     29          7           0       -1.419724    3.632534    0.006698
     30          6           0       -0.715094    4.793265    0.006346
     31          6           0        0.724269   -7.247960   -0.009064
     32          6           0       -0.724269   -7.247960    0.009058
     33          6           0       -1.400518    6.037967   -0.000440
     34          6           0        1.400518    6.037967    0.000436
     35          6           0        0.724269    7.247960    0.009058
     36          6           0       -0.724269    7.247960   -0.009064
[...]
 Alpha virt. eigenvalues --    1.88208   1.88325   1.88844   1.89552   1.89596
 Alpha virt. eigenvalues --    1.89867   1.89875   1.89901   1.89965   1.90210
 Alpha virt. eigenvalues --    1.90371   1.90437   1.90540   1.90642   1.90647
 Alpha virt. eigenvalues --    1.90724   1.91463   1.91538   1.92123   1.92342
 Alpha virt. eigenvalues --    1.92446   1.92612   1.92635   1.92716   1.93780
 Alpha virt. eigenvalues --    1.93853   1.94110   1.94155   1.94502   1.94758
 Alpha virt. eigenvalues --    1.95193   1.95701   1.95930   1.97112   1.97544
 Alpha virt. eigenvalues --    1.98001   1.98236   1.98734   1.98865   1.98869
 Alpha virt. eigenvalues --    1.98991   1.99105   1.99337   1.99356   1.99385
 Alpha virt. eigenvalues --    1.99436   1.99519   1.99557   2.00157   2.00520
 Alpha virt. eigenvalues --    2.00770   2.00840   2.01256   2.01464   2.01491
 Alpha virt. eigenvalues --    2.01945   2.02670   2.02675   2.02852   2.02859
 Alpha virt. eigenvalues --    2.03332   2.03640   2.03677   2.03684   2.03728
 Alpha virt. eigenvalues --    2.03783   2.03875   2.03901   2.04035   2.04252
 Alpha virt. eigenvalues --    2.04587   2.04594   2.04682   2.04740   2.04883
 Alpha virt. eigenvalues --    2.04953   2.05319   2.05680   2.05701   2.05717
 Alpha virt. eigenvalues --    2.05734   2.05834   2.05843   2.06305   2.06335
 Alpha virt. eigenvalues --    2.07443   2.07480   2.07528   2.07845   2.10253
 Alpha virt. eigenvalues --    2.10696   2.10809   2.10864   2.11298   2.11300
 Alpha virt. eigenvalues --    2.12349   2.12351   2.12387   2.12663   2.13410
 Alpha virt. eigenvalues --    2.13943   2.14701   2.14898   2.15375   2.16487
 Alpha virt. eigenvalues --    2.17700   2.17800   2.18514   2.18531   2.20251
 Alpha virt. eigenvalues --    2.20634   2.20755   2.20786   2.20797   2.21942
 Alpha virt. eigenvalues --    2.22167   2.22665   2.22793   2.23617   2.23651
 Alpha virt. eigenvalues --    2.23978   2.24251   2.24728   2.24751   2.24813
 Alpha virt. eigenvalues --    2.25221   2.25232   2.26199   2.26477   2.26647
 Alpha virt. eigenvalues --    2.27005   2.28445   2.28799   2.28986   2.29271
 Alpha virt. eigenvalues --    2.29659   2.29917   2.29959   2.30199   2.30832
 Alpha virt. eigenvalues --    2.30900   2.31802   2.32173   2.32487   2.33252
 Alpha virt. eigenvalues --    2.34077   2.34648   2.34738   2.35245   2.35504
 Alpha virt. eigenvalues --    2.36473   2.36486   2.36650   2.36737   2.37607
 Alpha virt. eigenvalues --    2.37842   2.38292   2.38851   2.38985   2.39068
 Alpha virt. eigenvalues --    2.39129   2.39506   2.39543   2.39657   2.39769
 Alpha virt. eigenvalues --    2.39947   2.40673   2.41182   2.42695   2.43508
 Alpha virt. eigenvalues --    2.43707   2.43713   2.43972   2.43976   2.44048
 Alpha virt. eigenvalues --    2.44486   2.44975   2.46295   2.47878   2.48045
 Alpha virt. eigenvalues --    2.48117   2.48456   2.49205   2.49303   2.49486
 Alpha virt. eigenvalues --    2.49631   2.50118   2.50185   2.50504   2.50733
 Alpha virt. eigenvalues --    2.50880   2.52000   2.52233   2.52698   2.52874
 Alpha virt. eigenvalues --    2.53827   2.53830   2.54468   2.54680   2.54694
 Alpha virt. eigenvalues --    2.54721   2.54904   2.55412   2.55991   2.56045
 Alpha virt. eigenvalues --    2.56419   2.56451   2.56460   2.57099   2.57406
 Alpha virt. eigenvalues --    2.57493   2.58100   2.58179   2.58350   2.58417
 Alpha virt. eigenvalues --    2.58646   2.58899   2.59227   2.59289   2.59318
 Alpha virt. eigenvalues --    2.59425   2.59730   2.59772   2.59899   2.60170
 Alpha virt. eigenvalues --    2.61011   2.61122   2.61385   2.61401   2.61549
 Alpha virt. eigenvalues --    2.61620   2.62044   2.62072   2.62107   2.62225
 Alpha virt. eigenvalues --    2.62248   2.62698   2.63467   2.63469   2.63544
 Alpha virt. eigenvalues --    2.64557   2.64793   2.65595   2.65600   2.65732
 Alpha virt. eigenvalues --    2.66393   2.66577   2.66847   2.67087   2.67408
 Alpha virt. eigenvalues --    2.67454   2.67537   2.67750   2.68050   2.68568
 Alpha virt. eigenvalues --    2.68827   2.70714   2.70970   2.71241   2.72243
 Alpha virt. eigenvalues --    2.72248   2.72522   2.72784   2.72878   2.73164
 Alpha virt. eigenvalues --    2.73548   2.73609   2.73963   2.74044   2.74130
 Alpha virt. eigenvalues --    2.74135   2.74424   2.75215   2.75460   2.75567
 Alpha virt. eigenvalues --    2.76181   2.76571   2.76979   2.77583   2.77792
 Alpha virt. eigenvalues --    2.78119   2.78238   2.78692   2.79171   2.80568
 Alpha virt. eigenvalues --    2.80659   2.82149   2.82433   2.82939   2.83110
 Alpha virt. eigenvalues --    2.83114   2.83116   2.83122   2.83239   2.83284
 Alpha virt. eigenvalues --    2.83330   2.83643   2.83770   2.83856   2.83918
 Alpha virt. eigenvalues --    2.83929   2.84184   2.84222   2.84572   2.85336
 Alpha virt. eigenvalues --    2.86140   2.86654   2.87103   2.87777   2.88309
 Alpha virt. eigenvalues --    2.88989   2.89215   2.90004   2.91241   2.92785
 Alpha virt. eigenvalues --    2.93684   2.94277   2.95884   2.98059   2.98070
 Alpha virt. eigenvalues --    2.99184   3.00038   3.00933   3.04523   3.04602
 Alpha virt. eigenvalues --    3.05012   3.05096   3.05114   3.05451   3.06130
 Alpha virt. eigenvalues --    3.06289   3.06625   3.08313   3.08953   3.10147
 Alpha virt. eigenvalues --    3.11115   3.11237   3.11295   3.13243   3.13245
 Alpha virt. eigenvalues --    3.13399   3.13427   3.15520   3.16828   3.16830
 Alpha virt. eigenvalues --    3.17271   3.17611   3.17612   3.17639   3.17641
 Alpha virt. eigenvalues --    3.18705   3.19607   3.20169   3.21095   3.21177
 Alpha virt. eigenvalues --    3.22390   3.22396   3.22897   3.24294   3.25393
 Alpha virt. eigenvalues --    3.25621   3.26001   3.26019   3.29833   3.31851
 Alpha virt. eigenvalues --    3.31854   3.32245   3.32540   3.33122   3.36112
 Alpha virt. eigenvalues --    3.36987   3.36991   3.37687   3.38735   3.39838
 Alpha virt. eigenvalues --    3.39839   3.39860   3.39863   3.40171   3.40173
 Alpha virt. eigenvalues --    3.40190   3.40204   3.40370   3.41002   3.43104
 Alpha virt. eigenvalues --    3.43105   3.43248   3.43250   3.43829   3.43835
 Alpha virt. eigenvalues --    3.45826   3.45828   3.46341   3.46362   3.47067
 Alpha virt. eigenvalues --    3.47118   3.47119   3.47156   3.51263   3.52944
 Alpha virt. eigenvalues --    3.53930   3.64748   3.65871   3.76145   3.76146
 Alpha virt. eigenvalues --    3.77701   3.79156   3.79203   3.85325   4.02133
 Alpha virt. eigenvalues --    4.02135   4.02661   4.02661   4.04161   4.04655
 Alpha virt. eigenvalues --    4.07381   4.12721   4.13428   4.13543   4.14004
 Alpha virt. eigenvalues --    4.14204   4.15318   4.16578   4.16753   4.17147
 Alpha virt. eigenvalues --    4.17179   4.17716   4.18543   4.18556   4.20388
 Alpha virt. eigenvalues --    4.20451   4.20897   4.21756   4.22276   4.22279
 Alpha virt. eigenvalues --    4.26597   4.28009   4.30899   4.32437   4.32501
 Alpha virt. eigenvalues --    4.33209   4.33220   4.35919   4.36012   4.36263
 Alpha virt. eigenvalues --    4.36513   4.39051   4.43697   4.43939   4.44727
 Alpha virt. eigenvalues --    4.44771   4.44904   4.45163   4.45598   4.45817
 Alpha virt. eigenvalues --    4.46301   4.46625   4.48214   4.48716   4.50419
 Alpha virt. eigenvalues --    4.50453   4.51583   4.51658   4.52937   4.54490
 Alpha virt. eigenvalues --    4.54932   4.66634   4.68071   4.68191   4.68544
 Alpha virt. eigenvalues --    4.68545   4.75297   4.81439   4.81875   4.87944
 Alpha virt. eigenvalues --    4.93658   5.01927   5.01928   5.02674   5.05700
 Alpha virt. eigenvalues --    5.05891
          Condensed to atoms (all electrons):
 Mulliken charges:
               1
     1  C    0.037482
     2  C    0.022188
     3  C    0.241443
     4  C    0.241443
     5  C    0.022187
     6  C    0.037482
     7  C    0.269168
     8  C    0.269168
     9  C   -0.161737
    10  H    0.114643
    11  C   -0.161737
    12  H    0.114643
    13  N   -0.570496
    14  N   -0.570496
    15  C    0.022187
    16  C    0.022188
    17  C   -0.119741
    18  C   -0.119741
    19  H    0.124412
    20  H    0.124412
    21  C   -0.119741
    22  C   -0.119741
    23  H    0.124412
    24  H    0.124412
    25  C    0.241443
    26  C    0.241443
    27  C    0.269168
    28  N   -0.570496
    29  N   -0.570496
    30  C    0.269168
    31  C    0.028999
    32  C    0.028999
    33  C   -0.161737
    34  C   -0.161737
    35  C    0.028999
    36  C    0.028999
    37  H    0.114643
    38  H    0.114643
    39  C    0.304191
    40  C    0.295890
    41  C   -0.174343
    42  C    0.006671
    43  C   -0.110362
    44  C   -0.160513
    45  H    0.103246
    46  H    0.103625
    47  H    0.100330
    48  C   -0.110362
    49  C    0.006671
    50  C   -0.174343
    51  C    0.295890
    52  C    0.304191
    53  C   -0.160514
    54  H    0.103625
    55  H    0.103246
    56  H    0.100330
    57  C    0.006671
    58  C   -0.110362
    59  C   -0.174343
    60  C   -0.160514
    61  H    0.103625
    62  C    0.295890
    63  H    0.103246
    64  C    0.304191
    65  H    0.100330
    66  C    0.006671
    67  C   -0.110362
    68  C   -0.174343
    69  C   -0.160513
    70  H    0.103625
    71  C    0.295890
    72  H    0.103246
    73  C    0.304191
    74  H    0.100330
    75  O   -0.466019
    76  O   -0.468938
    77  C   -0.142813
    78  C   -0.142273
    79  H    0.126935
    80  H    0.140057
    81  H    0.125858
    82  H    0.139892
    83  H    0.127137
    84  H    0.126260
    85  O   -0.468938
    86  O   -0.466019
    87  O   -0.468938
    88  O   -0.466019
    89  O   -0.468938
    90  O   -0.466019
    91  C   -0.142813
    92  C   -0.142273
    93  C   -0.142273
    94  C   -0.142813
    95  C   -0.142813
    96  C   -0.142273
    97  H    0.125859
    98  H    0.126935
    99  H    0.140057
   100  H    0.139892
   101  H    0.127137
   102  H    0.126260
   103  H    0.126260
   104  H    0.139892
   105  H    0.127137
   106  H    0.140057
   107  H    0.126935
   108  H    0.125858
   109  H    0.125859
   110  H    0.126935
   111  H    0.140057
   112  H    0.126260
   113  H    0.139892
   114  H    0.127137
   115  C   -0.109330
   116  H    0.104431
   117  C   -0.109330
   118  H    0.104431
 Sum of Mulliken charges =  -0.00000
 Mulliken charges with hydrogens summed into heavy atoms:
               1
     1  C    0.037482
     2  C    0.022188
     3  C    0.241443
     4  C    0.241443
     5  C    0.022187
     6  C    0.037482
     7  C    0.269168
     8  C    0.269168
     9  C   -0.047095
    11  C   -0.047095
    13  N   -0.570496
    14  N   -0.570496
    15  C    0.022187
    16  C    0.022188
    17  C    0.004672
    18  C    0.004672
    21  C    0.004672
    22  C    0.004672
    25  C    0.241443
    26  C    0.241443
    27  C    0.269168
    28  N   -0.570496
    29  N   -0.570496
    30  C    0.269168
    31  C    0.028999
    32  C    0.028999
    33  C   -0.047095
    34  C   -0.047095
    35  C    0.028999
    36  C    0.028999
    39  C    0.304191
    40  C    0.295890
    41  C   -0.071098
    42  C    0.006671
    43  C   -0.006737
    44  C   -0.060184
    48  C   -0.006737
    49  C    0.006671
    50  C   -0.071097
    51  C    0.295890
    52  C    0.304191
    53  C   -0.060184
    57  C    0.006671
    58  C   -0.006737
    59  C   -0.071097
    60  C   -0.060184
    62  C    0.295890
    64  C    0.304191
    66  C    0.006671
    67  C   -0.006737
    68  C   -0.071098
    69  C   -0.060184
    71  C    0.295890
    73  C    0.304191
    75  O   -0.466019
    76  O   -0.468938
    77  C    0.250038
    78  C    0.251017
    85  O   -0.468938
    86  O   -0.466019
    87  O   -0.468938
    88  O   -0.466019
    89  O   -0.468938
    90  O   -0.466019
    91  C    0.250038
    92  C    0.251017
    93  C    0.251017
    94  C    0.250038
    95  C    0.250038
    96  C    0.251017
   115  C   -0.004899
   117  C   -0.004899
 Electronic spatial extent (au):  <R**2>=         141720.0324
 Charge=             -0.0000 electrons
 Dipole moment (field-independent basis, Debye):
    X=             -0.0000    Y=              0.0000    Z=              0.0001  Tot=              0.0001
 Quadrupole moment (field-independent basis, Debye-Ang):
   XX=           -388.3716   YY=           -294.8155   ZZ=           -385.1450
   XY=              0.0011   XZ=             -0.0000   YZ=              0.0000
 Traceless Quadrupole moment (field-independent basis, Debye-Ang):
   XX=            -32.2609   YY=             61.2952   ZZ=            -29.0343
   XY=              0.0011   XZ=             -0.0000   YZ=              0.0000
 Octapole moment (field-independent basis, Debye-Ang**2):
  XXX=             -0.0000  YYY=             -0.0000  ZZZ=              0.0008  XYY=              0.0000
  XXY=              0.0000  XXZ=              0.0026  XZZ=              0.0000  YZZ=              0.0000
  YYZ=              0.0201  XYZ=             -2.0373
 Hexadecapole moment (field-independent basis, Debye-Ang**3):
 XXXX=         -18816.2665 YYYY=        -136051.1549 ZZZZ=          -2615.1141 XXXY=              0.0645
 XXXZ=             -0.0000 YYYX=              0.0145 YYYZ=             -0.0000 ZZZX=              0.0000
 ZZZY=             -0.0000 XXYY=         -30342.3762 XXZZ=          -3201.7701 YYZZ=         -25650.2256
 XXYZ=              0.0000 YYXZ=              0.0000 ZZXY=             -0.0111
 N-N= 9.574923311574D+03 E-N=-2.643459856881D+04  KE= 3.100788692947D+03
 Symmetry A    KE= 1.551981717103D+03
 Symmetry B    KE= 1.548806975844D+03
 Leave Link  601 at Wed Oct 24 11:17:11 2018, MaxMem=  6710886400 cpu:              90.4 elap:               4.0
 (Enter /mnt/gpfs/share/opt/gaussian/g16-A.03/g16/l9999.exe)

 Test job not archived.
 1\1\GINC-CNODE265\SP\RLC-wPBE TD-FC\6-31G(d,p)\C60H46N4O8\ROOT\24-Oct-
 2018\0\\#p td=(singlets,nstates=20) Geom=Checkpoint Guess=Read LC-wPBE
 /6-31g(d,p) IOP(3/107=0166600000) IOP(3/108=0166600000)\\Tuning input 
 file generated by awtune with parameters: w01666\\0,1\C,0,-0.000020069
 8,-0.728487278,-0.0003193516\C,0,-1.2230379158,-1.4496444005,0.0008224
 117\C,0,-2.4987501213,-0.7197117452,0.0016993557\C,0,-2.4987104552,0.7
 198494314,-0.0023367137\C,0,-1.2229580203,1.4497117876,-0.0014615295\C
 ,0,0.0000200698,0.728487278,-0.0003193516\C,0,-4.7932455115,0.71522654
 06,-0.0066642518\C,0,-4.7932849048,-0.7149623633,0.006030332\C,0,-6.03
 80058606,-1.400351389,-0.000754042\H,0,-6.012493976,-2.4919391895,-0.0
 405653531\C,0,-6.0379286861,1.400684177,0.0001219575\H,0,-6.0123566291
 ,2.4922705571,0.039933564\N,0,-3.6324949536,1.4198236745,-0.0070160039
 \N,0,-3.6325731989,-1.4196234893,0.0063804758\C,0,1.2229580203,-1.4497
 117876,-0.0014615295\C,0,1.2230379158,1.4496444005,0.0008224117\C,0,1.
 2093154927,-2.8527786215,-0.0012977928\C,0,-1.2094726771,-2.8527119822
 ,0.0006567219\H,0,2.1689777092,-3.3732406671,-0.0016167643\H,0,-2.1691
 635774,-3.3731211388,0.0009754772\C,0,-1.2093154927,2.8527786215,-0.00
 12977928\C,0,1.2094726771,2.8527119822,0.0006567219\H,0,-2.1689777092,
 3.3732406671,-0.0016167643\H,0,2.1691635774,3.3731211388,0.0009754772\
 C,0,2.4987501213,0.7197117452,0.0016993557\C,0,2.4987104552,-0.7198494
 314,-0.0023367137\C,0,4.7932849048,0.7149623633,0.006030332\N,0,3.6325
 731989,1.4196234893,0.0063804758\N,0,3.6324949536,-1.4198236745,-0.007
 0160039\C,0,4.7932455115,-0.7152265406,-0.0066642518\C,0,-7.2479404209
 ,0.7244689779,0.008745636\C,0,-7.2479803588,-0.7240695442,-0.009376264
 3\C,0,6.0379286861,-1.400684177,0.0001219575\C,0,6.0380058606,1.400351
 389,-0.000754042\C,0,7.2479803588,0.7240695442,-0.0093762643\C,0,7.247
 9404209,-0.7244689779,0.008745636\H,0,6.0123566291,-2.4922705571,0.039
 933564\H,0,6.012493976,2.4919391895,-0.0405653531\C,0,10.804301439,-3.
 165174532,0.236989323\C,0,9.8072142673,-3.4317881309,-0.7411172769\C,0
 ,8.6750802834,-2.6189597979,-0.8088385335\C,0,8.5027856105,-1.52866118
 19,0.0732651742\C,0,9.4916793645,-1.2758690392,1.0281995234\C,0,10.630
 7559923,-2.0895964727,1.1112276298\H,0,7.909584147,-2.8091360468,-1.56
 28571243\H,0,9.3778950884,-0.4418075389,1.7230696553\H,0,11.3836637934
 ,-1.8750904496,1.8707619582\C,0,9.4917513447,1.2753461709,-1.028826784
 \C,0,8.5028699093,1.5281926966,-0.0738940811\C,0,8.6752233189,2.618481
 7022,0.8082100523\C,0,9.8074012495,3.4312488896,0.7404894558\C,0,10.80
 44749667,3.1645809041,-0.2376160077\C,0,10.6308728537,2.0890109695,-1.
 1118530625\H,0,9.3779227107,0.4412904294,-1.7236965701\H,0,7.909737140
 2,2.8086993175,1.5622283176\H,0,11.3837715131,1.8744617512,-1.87138426
 08\C,0,-8.5028699093,-1.5281926966,-0.0738940811\C,0,-9.4917513447,-1.
 2753461709,-1.028826784\C,0,-8.6752233189,-2.6184817022,0.8082100523\C
 ,0,-10.6308728537,-2.0890109695,-1.1118530625\H,0,-9.3779227107,-0.441
 2904294,-1.7236965701\C,0,-9.8074012495,-3.4312488896,0.7404894558\H,0
 ,-7.9097371402,-2.8086993175,1.5622283176\C,0,-10.8044749667,-3.164580
 9041,-0.2376160077\H,0,-11.3837715131,-1.8744617512,-1.8713842608\C,0,
 -8.5027856105,1.5286611819,0.0732651742\C,0,-9.4916793645,1.2758690392
 ,1.0281995234\C,0,-8.6750802834,2.6189597979,-0.8088385335\C,0,-10.630
 7559923,2.0895964727,1.1112276298\H,0,-9.3778950884,0.4418075389,1.723
 0696553\C,0,-9.8072142673,3.4317881309,-0.7411172769\H,0,-7.909584147,
 2.8091360468,-1.5628571243\C,0,-10.804301439,3.165174532,0.236989323\H
 ,0,-11.3836637934,1.8750904496,1.8707619582\O,0,11.8750259515,4.012288
 5995,-0.2280216638\O,0,10.0619339254,4.4961651242,1.5578660251\C,0,12.
 8900451651,3.7755422196,-1.1940716105\C,0,9.0821438089,4.8013081366,2.
 5408816637\H,0,12.5026826565,3.864416296,-2.2250833412\H,0,13.65093580
 59,4.5486487467,-1.0263283111\H,0,13.3502403693,2.778758182,-1.0687098
 648\H,0,9.4606737311,5.679198059,3.080109938\H,0,8.1065317209,5.047486
 6657,2.08419821\H,0,8.9435159692,3.968645682,3.2540989315\O,0,10.06168
 91871,-4.4967191882,-1.5584925546\O,0,11.8748046967,-4.0129424949,0.22
 73981159\O,0,-10.0616891871,4.4967191882,-1.5584925546\O,0,-11.8748046
 967,4.0129424949,0.2273981159\O,0,-10.0619339254,-4.4961651242,1.55786
 60251\O,0,-11.8750259515,-4.0122885995,-0.2280216638\C,0,12.8898675431
 ,-3.7762110386,1.193405925\C,0,9.0819008368,-4.8017862661,-2.541533449
 4\C,0,-9.0821438089,-4.8013081366,2.5408816637\C,0,-12.8900451651,-3.7
 755422196,-1.1940716105\C,0,-12.8898675431,3.7762110386,1.193405925\C,
 0,-9.0819008368,4.8017862661,-2.5415334494\H,0,13.3500755752,-2.779436
 0712,1.0680209842\H,0,12.5025457587,-3.8650736809,2.2244341498\H,0,13.
 650736443,-4.549333101,1.0256356398\H,0,9.4603942973,-5.6796827819,-3.
 0807765843\H,0,8.1062674449,-5.0479254618,-2.0848740648\H,0,8.94332953
 17,-3.9690984849,-3.2547320038\H,0,-8.9435159692,-3.968645682,3.254098
 9315\H,0,-9.4606737311,-5.679198059,3.080109938\H,0,-8.1065317209,-5.0
 474866657,2.08419821\H,0,-13.6509358059,-4.5486487467,-1.0263283111\H,
 0,-12.5026826565,-3.864416296,-2.2250833412\H,0,-13.3502403693,-2.7787
 58182,-1.0687098648\H,0,-13.3500755752,2.7794360712,1.0680209842\H,0,-
 12.5025457587,3.8650736809,2.2244341498\H,0,-13.650736443,4.549333101,
 1.0256356398\H,0,-8.9433295317,3.9690984849,-3.2547320038\H,0,-9.46039
 42973,5.6796827819,-3.0807765843\H,0,-8.1062674449,5.0479254618,-2.084
 8740648\C,0,-0.000097772,-3.5488989079,-0.0003211492\H,0,-0.000127879,
 -4.6417154756,-0.0003222387\C,0,0.000097772,3.5488989079,-0.0003211492
 \H,0,0.000127879,4.6417154756,-0.0003222387\\Version=ES64L-G16RevA.03\
 State=1-A\HF=-3132.0392044\RMSD=6.275e-09\PG=C02 [X(C60H46N4O8)]\\@


 IN THE WOODS WE RETURN TO REASON AND FAITH.

                                 -- EMERSON
 Job cpu time:       0 days 12 hours 37 minutes 32.4 seconds.
 Elapsed time:       0 days  0 hours 31 minutes 43.9 seconds.
 File lengths (MBytes):  RWF=  18608 Int=      0 D2E=      0 Chk=   1280 Scr=     32
 Normal termination of Gaussian 16 at Wed Oct 24 11:17:14 2018.
