 Entering Gaussian System, Link 0=g16
 Input=3p3.gjf
 Output=3p3.log
 Initial command:
 /opt/ohpc/pub/libs/gaussian/g16-A.03/sandybridge/g16/l1.exe "/scratch/qai222/pamol/pamol_fmt/s1/3p3/Gau-73838.inp" -scrdir="/scratch/qai222/pamol/pamol_fmt/s1/3p3/"
 Entering Link 1 = /opt/ohpc/pub/libs/gaussian/g16-A.03/sandybridge/g16/l1.exe PID=     73839.
  
 Copyright (c) 1988,1990,1992,1993,1995,1998,2003,2009,2016,
            Gaussian, Inc.  All Rights Reserved.
  
 This is part of the Gaussian(R) 16 program.  It is based on
 the Gaussian(R) 09 system (copyright 2009, Gaussian, Inc.),
 the Gaussian(R) 03 system (copyright 2003, Gaussian, Inc.),
 the Gaussian(R) 98 system (copyright 1998, Gaussian, Inc.),
 the Gaussian(R) 94 system (copyright 1995, Gaussian, Inc.),
 the Gaussian 92(TM) system (copyright 1992, Gaussian, Inc.),
 the Gaussian 90(TM) system (copyright 1990, Gaussian, Inc.),
 the Gaussian 88(TM) system (copyright 1988, Gaussian, Inc.),
 the Gaussian 86(TM) system (copyright 1986, Carnegie Mellon
 University), and the Gaussian 82(TM) system (copyright 1983,
 Carnegie Mellon University). Gaussian is a federally registered
 trademark of Gaussian, Inc.
  
 This software contains proprietary and confidential information,
 including trade secrets, belonging to Gaussian, Inc.
  
 This software is provided under written license and may be
 used, copied, transmitted, or stored only in accord with that
 written license.
  
 The following legend is applicable only to US Government
 contracts under FAR:
  
                    RESTRICTED RIGHTS LEGEND
  
 Use, reproduction and disclosure by the US Government is
 subject to restrictions as set forth in subparagraphs (a)
 and (c) of the Commercial Computer Software - Restricted
 Rights clause in FAR 52.227-19.
  
 Gaussian, Inc.
 340 Quinnipiac St., Bldg. 40, Wallingford CT 06492
  
  
 ---------------------------------------------------------------
 Warning -- This program may not be used in any manner that
 competes with the business of Gaussian, Inc. or will provide
 assistance to any competitor of Gaussian, Inc.  The licensee
 of this program is prohibited from giving any competitor of
 Gaussian, Inc. access to this program.  By using this program,
 the user acknowledges that Gaussian, Inc. is engaged in the
 business of creating and licensing software in the field of
 computational chemistry and represents and warrants to the
 licensee that it is not a competitor of Gaussian, Inc. and that
 it will not use this program in any manner prohibited above.
 ---------------------------------------------------------------
  

 Cite this work as:
 Gaussian 16, Revision A.03,
 M. J. Frisch, G. W. Trucks, H. B. Schlegel, G. E. Scuseria, 
 M. A. Robb, J. R. Cheeseman, G. Scalmani, V. Barone, 
 G. A. Petersson, H. Nakatsuji, X. Li, M. Caricato, A. V. Marenich, 
 J. Bloino, B. G. Janesko, R. Gomperts, B. Mennucci, H. P. Hratchian, 
 J. V. Ortiz, A. F. Izmaylov, J. L. Sonnenberg, D. Williams-Young, 
 F. Ding, F. Lipparini, F. Egidi, J. Goings, B. Peng, A. Petrone, 
 T. Henderson, D. Ranasinghe, V. G. Zakrzewski, J. Gao, N. Rega, 
 G. Zheng, W. Liang, M. Hada, M. Ehara, K. Toyota, R. Fukuda, 
 J. Hasegawa, M. Ishida, T. Nakajima, Y. Honda, O. Kitao, H. Nakai, 
 T. Vreven, K. Throssell, J. A. Montgomery, Jr., J. E. Peralta, 
 F. Ogliaro, M. J. Bearpark, J. J. Heyd, E. N. Brothers, K. N. Kudin, 
 V. N. Staroverov, T. A. Keith, R. Kobayashi, J. Normand, 
 K. Raghavachari, A. P. Rendell, J. C. Burant, S. S. Iyengar, 
 J. Tomasi, M. Cossi, J. M. Millam, M. Klene, C. Adamo, R. Cammi, 
 J. W. Ochterski, R. L. Martin, K. Morokuma, O. Farkas, 
 J. B. Foresman, and D. J. Fox, Gaussian, Inc., Wallingford CT, 2016.
 
 ******************************************
 Gaussian 16:  EM64L-G16RevA.03 25-Dec-2016
                20-Jan-2020 
 ******************************************
 %mem=50GB
 %nproc=16
 Will use up to   16 processors via shared memory.
 ----------------------------------------------------------------------
 #P uLC-wHPBE/def2tzvp iop(3/107=0180000000, 3/108=0180000000) td(NStat
 es=20)
 ----------------------------------------------------------------------
 1/38=1,172=1/1;
 2/12=2,17=6,18=5,40=1/2;
 3/5=44,7=101,11=2,25=1,30=1,74=-71,107=180000000,108=180000000,116=2/1,2,3,8;
 4//1;
 5/5=2,38=5/2;
 8/6=1,10=1,108=20/1;
 9/41=20,42=1,70=2/14;
 6/7=2,8=2,9=2,10=2/1;
 99/5=1,9=1/99;
 Leave Link    1 at Mon Jan 20 22:57:39 2020, MaxMem=  6710886400 cpu:               9.6 elap:               0.6
 (Enter /opt/ohpc/pub/libs/gaussian/g16-A.03/sandybridge/g16/l101.exe)
 -------
 H22 C40
 -------
 Symbolic Z-matrix:
 Charge =  0 Multiplicity = 1
 C                     0.        0.        3.53632 
 C                     0.        1.19883   2.84257 
 C                     0.        1.22741   1.4437 
 C                     0.        0.        0.7299 
 C                     0.       -1.22741   1.4437 
 C                     0.       -1.19883   2.84257 
 C                     0.        2.51112   0.71982 
 C                     0.        0.       -0.7299 
 C                     0.        1.22741  -1.4437 
 C                     0.        2.51112  -0.71982 
 C                     0.        1.19883  -2.84257 
 H                     0.        2.12536  -3.41125 
 C                     0.        0.       -3.53632 
 C                     0.       -1.19883  -2.84257 
 C                     0.       -1.22741  -1.4437 
 C                     0.       -2.51112  -0.71982 
 C                     0.       -2.51112   0.71982 
 H                     0.        0.        4.62649 
 H                     0.        2.12536   3.41125 
 H                     0.       -2.12536   3.41125 
 H                     0.        0.       -4.62649 
 H                     0.       -2.12536  -3.41125 
 C                     0.        3.72026   1.38664 
 C                     0.        4.96812   0.71683 
 C                     0.        4.96812  -0.71683 
 C                     0.        3.72026  -1.38664 
 H                     0.        3.75244   2.47461 
 H                     0.        3.75244  -2.47461 
 C                     0.        6.19161   1.40239 
 C                     0.        7.4093    0.72072 
 C                     0.        7.4093   -0.72072 
 C                     0.        6.19161  -1.40239 
 H                     0.        6.19116   2.49473 
 H                     0.        6.19116  -2.49473 
 C                     0.       -4.96812   0.71683 
 C                     0.       -3.72026   1.38664 
 C                     0.       -3.72026  -1.38664 
 C                     0.       -4.96812  -0.71683 
 H                     0.       -3.75244   2.47461 
 H                     0.       -3.75244  -2.47461 
 C                     0.       -7.4093    0.72072 
 C                     0.       -6.19161   1.40239 
 C                     0.       -6.19161  -1.40239 
 C                     0.       -7.4093   -0.72072 
 H                     0.       -6.19116   2.49473 
 H                     0.       -6.19116  -2.49473 
 C                     0.        8.66602   1.40509 
 C                     0.        9.84317   0.71282 
 C                     0.        9.84317  -0.71282 
 C                     0.        8.66602  -1.40509 
 H                     0.        8.66358   2.49642 
 H                     0.        10.79296   1.24835 
 H                     0.        10.79296  -1.24835 
 H                     0.        8.66358  -2.49642 
 C                     0.       -8.66602   1.40509 
 C                     0.       -8.66602  -1.40509 
 C                     0.       -9.84317  -0.71282 
 C                     0.       -9.84317   0.71282 
 H                     0.       -8.66358   2.49642 
 H                     0.       -8.66358  -2.49642 
 H                     0.       -10.79296  -1.24835 
 H                     0.       -10.79296   1.24835 
 
 ITRead=  0  0  0  0  0  0  0  0  0  0  0  0  0  0  0  0  0  0  0  0
 ITRead=  0  0  0  0  0  0  0  0  0  0  0  0  0  0  0  0  0  0  0  0
 ITRead=  0  0  0  0  0  0  0  0  0  0  0  0  0  0  0  0  0  0  0  0
 ITRead=  0  0
 MicOpt= -1 -1 -1 -1 -1 -1 -1 -1 -1 -1 -1 -1 -1 -1 -1 -1 -1 -1 -1 -1
 MicOpt= -1 -1 -1 -1 -1 -1 -1 -1 -1 -1 -1 -1 -1 -1 -1 -1 -1 -1 -1 -1
 MicOpt= -1 -1 -1 -1 -1 -1 -1 -1 -1 -1 -1 -1 -1 -1 -1 -1 -1 -1 -1 -1
 MicOpt= -1 -1
 NAtoms=     62 NQM=       62 NQMF=       0 NMMI=      0 NMMIF=      0
                NMic=       0 NMicF=      0.
                    Isotopes and Nuclear Properties:
 (Nuclear quadrupole moments (NQMom) in fm**2, nuclear magnetic moments (NMagM)
  in nuclear magnetons)

  Atom         1           2           3           4           5           6           7           8           9          10
 IAtWgt=          12          12          12          12          12          12          12          12          12          12
 AtmWgt=  12.0000000  12.0000000  12.0000000  12.0000000  12.0000000  12.0000000  12.0000000  12.0000000  12.0000000  12.0000000
 NucSpn=           0           0           0           0           0           0           0           0           0           0
 AtZEff=  -0.0000000  -0.0000000  -0.0000000  -0.0000000  -0.0000000  -0.0000000  -0.0000000  -0.0000000  -0.0000000  -0.0000000
 NQMom=    0.0000000   0.0000000   0.0000000   0.0000000   0.0000000   0.0000000   0.0000000   0.0000000   0.0000000   0.0000000
 NMagM=    0.0000000   0.0000000   0.0000000   0.0000000   0.0000000   0.0000000   0.0000000   0.0000000   0.0000000   0.0000000
 AtZNuc=   6.0000000   6.0000000   6.0000000   6.0000000   6.0000000   6.0000000   6.0000000   6.0000000   6.0000000   6.0000000

  Atom        11          12          13          14          15          16          17          18          19          20
 IAtWgt=          12           1          12          12          12          12          12           1           1           1
 AtmWgt=  12.0000000   1.0078250  12.0000000  12.0000000  12.0000000  12.0000000  12.0000000   1.0078250   1.0078250   1.0078250
 NucSpn=           0           1           0           0           0           0           0           1           1           1
 AtZEff=  -0.0000000  -0.0000000  -0.0000000  -0.0000000  -0.0000000  -0.0000000  -0.0000000  -0.0000000  -0.0000000  -0.0000000
 NQMom=    0.0000000   0.0000000   0.0000000   0.0000000   0.0000000   0.0000000   0.0000000   0.0000000   0.0000000   0.0000000
 NMagM=    0.0000000   2.7928460   0.0000000   0.0000000   0.0000000   0.0000000   0.0000000   2.7928460   2.7928460   2.7928460
 AtZNuc=   6.0000000   1.0000000   6.0000000   6.0000000   6.0000000   6.0000000   6.0000000   1.0000000   1.0000000   1.0000000

  Atom        21          22          23          24          25          26          27          28          29          30
 IAtWgt=           1           1          12          12          12          12           1           1          12          12
 AtmWgt=   1.0078250   1.0078250  12.0000000  12.0000000  12.0000000  12.0000000   1.0078250   1.0078250  12.0000000  12.0000000
 NucSpn=           1           1           0           0           0           0           1           1           0           0
 AtZEff=  -0.0000000  -0.0000000  -0.0000000  -0.0000000  -0.0000000  -0.0000000  -0.0000000  -0.0000000  -0.0000000  -0.0000000
 NQMom=    0.0000000   0.0000000   0.0000000   0.0000000   0.0000000   0.0000000   0.0000000   0.0000000   0.0000000   0.0000000
 NMagM=    2.7928460   2.7928460   0.0000000   0.0000000   0.0000000   0.0000000   2.7928460   2.7928460   0.0000000   0.0000000
 AtZNuc=   1.0000000   1.0000000   6.0000000   6.0000000   6.0000000   6.0000000   1.0000000   1.0000000   6.0000000   6.0000000

  Atom        31          32          33          34          35          36          37          38          39          40
 IAtWgt=          12          12           1           1          12          12          12          12           1           1
 AtmWgt=  12.0000000  12.0000000   1.0078250   1.0078250  12.0000000  12.0000000  12.0000000  12.0000000   1.0078250   1.0078250
 NucSpn=           0           0           1           1           0           0           0           0           1           1
 AtZEff=  -0.0000000  -0.0000000  -0.0000000  -0.0000000  -0.0000000  -0.0000000  -0.0000000  -0.0000000  -0.0000000  -0.0000000
 NQMom=    0.0000000   0.0000000   0.0000000   0.0000000   0.0000000   0.0000000   0.0000000   0.0000000   0.0000000   0.0000000
 NMagM=    0.0000000   0.0000000   2.7928460   2.7928460   0.0000000   0.0000000   0.0000000   0.0000000   2.7928460   2.7928460
 AtZNuc=   6.0000000   6.0000000   1.0000000   1.0000000   6.0000000   6.0000000   6.0000000   6.0000000   1.0000000   1.0000000

  Atom        41          42          43          44          45          46          47          48          49          50
 IAtWgt=          12          12          12          12           1           1          12          12          12          12
 AtmWgt=  12.0000000  12.0000000  12.0000000  12.0000000   1.0078250   1.0078250  12.0000000  12.0000000  12.0000000  12.0000000
 NucSpn=           0           0           0           0           1           1           0           0           0           0
 AtZEff=  -0.0000000  -0.0000000  -0.0000000  -0.0000000  -0.0000000  -0.0000000  -0.0000000  -0.0000000  -0.0000000  -0.0000000
 NQMom=    0.0000000   0.0000000   0.0000000   0.0000000   0.0000000   0.0000000   0.0000000   0.0000000   0.0000000   0.0000000
 NMagM=    0.0000000   0.0000000   0.0000000   0.0000000   2.7928460   2.7928460   0.0000000   0.0000000   0.0000000   0.0000000
 AtZNuc=   6.0000000   6.0000000   6.0000000   6.0000000   1.0000000   1.0000000   6.0000000   6.0000000   6.0000000   6.0000000

  Atom        51          52          53          54          55          56          57          58          59          60
 IAtWgt=           1           1           1           1          12          12          12          12           1           1
 AtmWgt=   1.0078250   1.0078250   1.0078250   1.0078250  12.0000000  12.0000000  12.0000000  12.0000000   1.0078250   1.0078250
 NucSpn=           1           1           1           1           0           0           0           0           1           1
 AtZEff=  -0.0000000  -0.0000000  -0.0000000  -0.0000000  -0.0000000  -0.0000000  -0.0000000  -0.0000000  -0.0000000  -0.0000000
 NQMom=    0.0000000   0.0000000   0.0000000   0.0000000   0.0000000   0.0000000   0.0000000   0.0000000   0.0000000   0.0000000
 NMagM=    2.7928460   2.7928460   2.7928460   2.7928460   0.0000000   0.0000000   0.0000000   0.0000000   2.7928460   2.7928460
 AtZNuc=   1.0000000   1.0000000   1.0000000   1.0000000   6.0000000   6.0000000   6.0000000   6.0000000   1.0000000   1.0000000

  Atom        61          62
 IAtWgt=           1           1
 AtmWgt=   1.0078250   1.0078250
 NucSpn=           1           1
 AtZEff=  -0.0000000  -0.0000000
 NQMom=    0.0000000   0.0000000
 NMagM=    2.7928460   2.7928460
 AtZNuc=   1.0000000   1.0000000
 Leave Link  101 at Mon Jan 20 22:57:40 2020, MaxMem=  6710886400 cpu:               2.6 elap:               0.2
 (Enter /opt/ohpc/pub/libs/gaussian/g16-A.03/sandybridge/g16/l202.exe)
 Stoichiometry    C40H22
 Framework group  D2H[C2"(HCC.CCH),SG(C36H20)]
 Deg. of freedom    31
 Full point group                 D2H     NOp   8
 Largest Abelian subgroup         D2H     NOp   8
 Largest concise Abelian subgroup D2      NOp   4
                         Standard orientation:                         
 ---------------------------------------------------------------------
 Center     Atomic      Atomic             Coordinates (Angstroms)
 Number     Number       Type             X           Y           Z
 ---------------------------------------------------------------------
      1          6           0        0.000000    0.000000    3.536321
      2          6           0        0.000000    1.198833    2.842572
      3          6           0        0.000000    1.227405    1.443698
      4          6           0        0.000000    0.000000    0.729898
      5          6           0       -0.000000   -1.227405    1.443698
      6          6           0       -0.000000   -1.198833    2.842572
      7          6           0        0.000000    2.511121    0.719817
      8          6           0        0.000000    0.000000   -0.729898
      9          6           0        0.000000    1.227405   -1.443698
     10          6           0        0.000000    2.511121   -0.719817
     11          6           0        0.000000    1.198833   -2.842572
     12          1           0        0.000000    2.125364   -3.411251
     13          6           0        0.000000    0.000000   -3.536321
     14          6           0       -0.000000   -1.198833   -2.842572
     15          6           0       -0.000000   -1.227405   -1.443698
     16          6           0       -0.000000   -2.511121   -0.719817
     17          6           0       -0.000000   -2.511121    0.719817
     18          1           0        0.000000    0.000000    4.626490
     19          1           0       -0.000000    2.125364    3.411251
     20          1           0       -0.000000   -2.125364    3.411251
     21          1           0        0.000000    0.000000   -4.626490
     22          1           0       -0.000000   -2.125364   -3.411251
     23          6           0        0.000000    3.720259    1.386637
     24          6           0        0.000000    4.968122    0.716833
     25          6           0        0.000000    4.968122   -0.716833
     26          6           0        0.000000    3.720259   -1.386637
     27          1           0        0.000000    3.752440    2.474612
     28          1           0        0.000000    3.752440   -2.474612
     29          6           0        0.000000    6.191612    1.402388
     30          6           0        0.000000    7.409298    0.720717
     31          6           0        0.000000    7.409298   -0.720717
     32          6           0        0.000000    6.191612   -1.402388
     33          1           0        0.000000    6.191159    2.494732
     34          1           0        0.000000    6.191159   -2.494732
     35          6           0       -0.000000   -4.968122    0.716833
     36          6           0       -0.000000   -3.720259    1.386637
     37          6           0       -0.000000   -3.720259   -1.386637
     38          6           0       -0.000000   -4.968122   -0.716833
     39          1           0       -0.000000   -3.752440    2.474612
     40          1           0       -0.000000   -3.752440   -2.474612
     41          6           0       -0.000000   -7.409298    0.720717
     42          6           0       -0.000000   -6.191612    1.402388
     43          6           0       -0.000000   -6.191612   -1.402388
     44          6           0       -0.000000   -7.409298   -0.720717
     45          1           0       -0.000000   -6.191159    2.494732
     46          1           0       -0.000000   -6.191159   -2.494732
     47          6           0        0.000000    8.666021    1.405089
     48          6           0        0.000000    9.843169    0.712816
     49          6           0        0.000000    9.843169   -0.712816
     50          6           0        0.000000    8.666021   -1.405089
     51          1           0        0.000000    8.663579    2.496417
     52          1           0        0.000000   10.792959    1.248351
     53          1           0        0.000000   10.792959   -1.248351
     54          1           0        0.000000    8.663579   -2.496417
     55          6           0       -0.000000   -8.666021    1.405089
     56          6           0       -0.000000   -8.666021   -1.405089
     57          6           0       -0.000000   -9.843169   -0.712816
     58          6           0       -0.000000   -9.843169    0.712816
     59          1           0       -0.000000   -8.663579    2.496417
     60          1           0       -0.000000   -8.663579   -2.496417
     61          1           0       -0.000000  -10.792959   -1.248351
     62          1           0       -0.000000  -10.792959    1.248351
 ---------------------------------------------------------------------
 Rotational constants (GHZ):           0.3736995           0.0315362           0.0290820
 Leave Link  202 at Mon Jan 20 22:57:40 2020, MaxMem=  6710886400 cpu:               0.6 elap:               0.1
 (Enter /opt/ohpc/pub/libs/gaussian/g16-A.03/sandybridge/g16/l301.exe)
 Standard basis: def2TZVP (5D, 7F)
 Ernie: Thresh=  0.10000D-02 Tol=  0.10000D-05 Strict=F.
 There are   288 symmetry adapted cartesian basis functions of AG  symmetry.
 There are   110 symmetry adapted cartesian basis functions of B1G symmetry.
 There are   121 symmetry adapted cartesian basis functions of B2G symmetry.
 There are   267 symmetry adapted cartesian basis functions of B3G symmetry.
 There are   110 symmetry adapted cartesian basis functions of AU  symmetry.
 There are   288 symmetry adapted cartesian basis functions of B1U symmetry.
 There are   267 symmetry adapted cartesian basis functions of B2U symmetry.
 There are   121 symmetry adapted cartesian basis functions of B3U symmetry.
 There are   246 symmetry adapted basis functions of AG  symmetry.
 There are   101 symmetry adapted basis functions of B1G symmetry.
 There are   110 symmetry adapted basis functions of B2G symmetry.
 There are   229 symmetry adapted basis functions of B3G symmetry.
 There are   101 symmetry adapted basis functions of AU  symmetry.
 There are   246 symmetry adapted basis functions of B1U symmetry.
 There are   229 symmetry adapted basis functions of B2U symmetry.
 There are   110 symmetry adapted basis functions of B3U symmetry.
  1372 basis functions,  2216 primitive gaussians,  1572 cartesian basis functions
   131 alpha electrons      131 beta electrons
       nuclear repulsion energy      3714.2078186113 Hartrees.
 IExCor=33909 DFT=T Ex+Corr=LC-wHPBE ExCW=0 ScaHFX=  1.000000
 ScaDFX=  1.000000  1.000000  1.000000  1.000000 ScalE2=  1.000000  1.000000
 IRadAn=      5 IRanWt=     -1 IRanGd=            0 ICorTp=0 IEmpDi=  4
 HFx  wShort=  0.000000 wLong=  0.180000 cFull=  0.000000 cShort=  0.000000 cLong=  1.000000
 DFx  wShort=  0.000000 wLong=  0.180000 cFull=  0.000000 cShort=  1.000000 cLong=  0.000000
 NAtoms=   62 NActive=   62 NUniq=   17 SFac= 4.00D+00 NAtFMM=   60 NAOKFM=T Big=F
 Integral buffers will be    131072 words long.
 Raffenetti 2 integral format.
 Two-electron integral symmetry is turned on.
 Leave Link  301 at Mon Jan 20 22:57:40 2020, MaxMem=  6710886400 cpu:               1.1 elap:               0.1
 (Enter /opt/ohpc/pub/libs/gaussian/g16-A.03/sandybridge/g16/l302.exe)
 NPDir=0 NMtPBC=     1 NCelOv=     1 NCel=       1 NClECP=     1 NCelD=      1
         NCelK=      1 NCelE2=     1 NClLst=     1 CellRange=     0.0.
 One-electron integrals computed using PRISM.
 One-electron integral symmetry used in STVInt
   8 Symmetry operations used in ECPInt.
 ECPInt:  NShTT=  139656 NPrTT=  435724 LenC2=   93257 LenP2D=  195425.
 LDataN:  DoStor=T MaxTD1= 6 Len=  172
 NBasis=  1372 RedAO= T EigKep=  1.76D-06  NBF=   246   101   110   229   101   246   229   110
 NBsUse=  1371 1.00D-06 EigRej=  9.13D-07 NBFU=   246   101   110   229   101   245   229   110
 Precomputing XC quadrature grid using
 IXCGrd= 4 IRadAn=           5 IRanWt=          -1 IRanGd=           0 AccXCQ= 0.00D+00.
 Generated NRdTot=       0 NPtTot=           0 NUsed=           0 NTot=          32
 NSgBfM=  1388  1388  1388  1388  1388 MxSgAt=    62 MxSgA2=    62.
 Leave Link  302 at Mon Jan 20 22:57:43 2020, MaxMem=  6710886400 cpu:              47.0 elap:               3.0
 (Enter /opt/ohpc/pub/libs/gaussian/g16-A.03/sandybridge/g16/l303.exe)
 DipDrv:  MaxL=1.
 Leave Link  303 at Mon Jan 20 22:57:43 2020, MaxMem=  6710886400 cpu:               5.7 elap:               0.4
 (Enter /opt/ohpc/pub/libs/gaussian/g16-A.03/sandybridge/g16/l308.exe)
 Leave Link  308 at Mon Jan 20 22:57:44 2020, MaxMem=  6710886400 cpu:              10.3 elap:               0.8
 (Enter /opt/ohpc/pub/libs/gaussian/g16-A.03/sandybridge/g16/l401.exe)
 ExpMin= 9.52D-02 ExpMax= 1.36D+04 ExpMxC= 4.63D+02 IAcc=3 IRadAn=         5 AccDes= 0.00D+00
 Harris functional with IExCor=33909 and IRadAn=       5 diagonalized for initial guess.
 HarFok:  IExCor=33909 AccDes= 0.00D+00 IRadAn=         5 IDoV= 1 UseB2=F ITyADJ=14
 ICtDFT=  3500011 ScaDFX=  1.000000  1.000000  1.000000  1.000000
 FoFCou: FMM=F IPFlag=           0 FMFlag=      100000 FMFlg1=        2000
         NFxFlg=           0 DoJE=T BraDBF=F KetDBF=T FulRan=T
         wScrn=  0.000000 ICntrl=       500 IOpCl=  0 I1Cent=   200000004 NGrid=           0
         NMat0=    1 NMatS0=      1 NMatT0=    0 NMatD0=    1 NMtDS0=    0 NMtDT0=    0
 Petite list used in FoFCou.
 Harris En= -1511.50171404550    
 JPrj=0 DoOrth=F DoCkMO=F.
 Initial guess orbital symmetries:
 Alpha Orbitals:
       Occupied  (B1U) (AG) (B3G) (B2U) (B1U) (AG) (B2U) (AG) (B3G)
                 (B1U) (B1U) (B3G) (B2U) (AG) (B3G) (B1U) (B2U)
                 (AG) (B3G) (B1U) (B2U) (AG) (B2U) (AG) (B3G) (B1U)
                 (B2U) (AG) (B3G) (B1U) (B2U) (AG) (B1U) (B3G)
                 (AG) (B1U) (B3G) (B2U) (AG) (B1U) (AG) (B2U) (AG)
                 (B2U) (B1U) (AG) (B2U) (AG) (B3G) (B1U) (AG) (B3G)
                 (B2U) (B1U) (B3G) (AG) (B1U) (B2U) (B1U) (B3G)
                 (B2U) (AG) (B1U) (B3G) (AG) (B2U) (B2U) (AG) (B3G)
                 (AG) (B1U) (B2U) (AG) (B1U) (B2U) (B3G) (B2U)
                 (AG) (AG) (B2U) (B1U) (AG) (B1U) (B2U) (B3G) (AG)
                 (B3G) (B2U) (B1U) (B3G) (AG) (B3G) (B2U) (AG)
                 (B1U) (B3G) (B1U) (B1U) (B3U) (AG) (B3G) (B1G)
                 (B2U) (B3U) (B1U) (B2U) (AG) (B1G) (B3G) (B1U)
                 (B2G) (B2U) (B3U) (B3G) (AG) (B2U) (AG) (B1G)
                 (B3U) (AU) (B2G) (B3U) (AU) (B1G) (B2G) (AU) (B3U)
                 (B2G) (B1G) (AU) (B2G)
       Virtual   (B1G) (B3U) (AU) (B3U) (B1G) (B2G) (B3U) (AU)
                 (B1G) (B2G) (B3U) (B1G) (B2G) (AU) (B1U) (AG)
                 (B2U) (AG) (B3G) (B2G) (B2U) (B1U) (B3U) (AG)
                 (B3G) (AU) (B2U) (AG) (B1U) (B2G) (B2U) (AG) (B3G)
                 (AG) (B1U) (B2U) (AU) (AG) (B1U) (AG) (B1U) (B3G)
                 (B2U) (B2U) (B1U) (B2U) (B3G) (AG) (B1U) (B2G)
                 (B3G) (B1U) (B2U) (AG) (B3G) (B3G) (B2U) (B3U)
                 (B3G) (AG) (B1U) (B1G) (AG) (B1U) (B2U) (AG) (B1U)
                 (B3U) (B3G) (B2U) (AG) (B2G) (B3G) (B1G) (AG)
                 (B1U) (B2U) (AU) (AG) (B3G) (B2U) (B1U) (B3U)
                 (AG) (B2G) (AU) (B2U) (B3G) (B1G) (B3U) (B1U)
                 (AG) (B2U) (B2G) (B1U) (B2U) (B3U) (B2U) (AG)
                 (B1G) (AG) (B1U) (B2U) (AU) (B3U) (B3G) (B1G)
                 (B2G) (B1G) (B3G) (B1U) (AG) (B1U) (B3G) (B2G)
                 (B2U) (B3U) (AG) (B1U) (B3G) (B3U) (AG) (B1U)
                 (B2U) (B3G) (B2U) (AG) (AU) (AG) (B1G) (B2U) (AG)
                 (B3G) (B2G) (B3G) (B1U) (B3U) (B1U) (B2U) (B1G)
                 (AG) (B3G) (B1U) (B2U) (B3U) (AU) (B1U) (AG) (B3G)
                 (AG) (B1U) (B2U) (B3G) (B2U) (AG) (B1U) (B1G)
                 (AU) (B3G) (B2G) (B3U) (B1U) (B2G) (AG) (B2U)
                 (B3G) (B1G) (B1U) (B3G) (B3U) (B1U) (B3G) (AU)
                 (B2U) (B1U) (AG) (B2U) (B3G) (B2G) (B1U) (AG)
                 (AU) (B3G) (B2U) (AG) (B1U) (B2U) (B3U) (B2G)
                 (AG) (B1G) (B3G) (B1U) (AG) (B2U) (AG) (B3G) (B1U)
                 (B1G) (B3U) (B2U) (B3G) (B1U) (B1U) (AG) (B2U)
                 (B3U) (B3G) (AU) (B3G) (B2G) (AG) (B1G) (B1U)
                 (B3G) (B2U) (B1U) (B1U) (B3G) (B1U) (B1G) (B3U)
                 (AG) (B3G) (B2G) (B2U) (AU) (AG) (B1U) (B1U) (B3G)
                 (B3G) (AG) (AG) (B1U) (B2U) (B3G) (B2U) (B1G)
                 (B2U) (B3U) (AG) (AU) (B1U) (B2G) (B1U) (AG) (AU)
                 (B3U) (B3G) (B2G) (B2U) (B2U) (B3G) (AG) (B1G)
                 (B2U) (AU) (B1U) (AG) (B1G) (AG) (B3U) (B3G) (B2U)
                 (AG) (B1U) (B2U) (B1U) (B2G) (AG) (B3G) (B1U)
                 (B1G) (AG) (B2U) (AU) (B2U) (AG) (B2U) (AG) (B2G)
                 (B1U) (B2U) (B3U) (AG) (B3G) (AG) (B2U) (B2U)
                 (B3G) (B3U) (B3G) (B1U) (B3G) (AG) (B1G) (AU)
                 (B1U) (B2U) (B3G) (AG) (B1U) (B1G) (B3U) (AG)
                 (B2U) (B2G) (AG) (B2G) (B1U) (B2U) (B3G) (AU)
                 (B3G) (AG) (B1G) (B2U) (B2U) (B1U) (B2U) (AU)
                 (B1U) (B3G) (B3U) (B3G) (B1U) (B2G) (AU) (B1U)
                 (AG) (AG) (B2U) (B1U) (AG) (B3G) (B2G) (B3U) (B1G)
                 (B2U) (AG) (AG) (B3G) (B3U) (B1U) (AU) (B3G) (B2G)
                 (B1U) (B2U) (B1G) (B2G) (AG) (B3U) (AU) (B3U)
                 (B1G) (AG) (B3G) (B2U) (B3U) (B1G) (AG) (B2U)
                 (B1U) (B2G) (B1G) (B3G) (B1U) (AG) (B2U) (B3G)
                 (AG) (B3G) (AU) (B1U) (B2G) (B2U) (AG) (B1U) (B2U)
                 (B3U) (AU) (B1G) (B2G) (B3G) (B1U) (B1U) (B2U)
                 (AG) (B2U) (B3U) (B3G) (B1G) (AG) (B1U) (B3G)
                 (B3G) (B3U) (AU) (B2G) (B1U) (AG) (B3G) (B3U)
                 (B2U) (B1G) (B1U) (B3G) (AG) (B2G) (AU) (B2U)
                 (B3G) (B1U) (B3U) (B1U) (AG) (B2U) (B2G) (B3G)
                 (B1G) (B1U) (B2U) (AG) (AU) (B1U) (B3G) (B3U)
                 (B1U) (B2U) (B2G) (AU) (AG) (B1G) (B3U) (B3G)
                 (AG) (B2U) (AU) (AG) (B2U) (B3G) (B1U) (B2G) (B2U)
                 (B3U) (B3G) (B1U) (B1G) (AG) (B3G) (B1U) (AG)
                 (B2U) (AG) (B2U) (B1U) (B2G) (AG) (AU) (B2U) (B3G)
                 (B1U) (AG) (AU) (B2U) (B2G) (B3U) (B3G) (B1G)
                 (AG) (AU) (B1U) (B2G) (B2U) (B3G) (B1U) (B1G)
                 (AU) (AG) (B2G) (B1U) (B3G) (B3U) (B1G) (AG) (B3U)
                 (B2U) (B2G) (AG) (B1U) (B1G) (AU) (B1U) (B2U)
                 (B2G) (B3G) (AG) (B3U) (B3G) (B3G) (B1U) (B1U)
                 (B2U) (B3G) (AU) (B1G) (B1U) (B2U) (B3U) (AG)
                 (B3G) (B1U) (B1G) (B2G) (B3U) (AU) (B2G) (B2G)
                 (B3G) (AU) (B1G) (B3U) (B2G) (AU) (B1U) (AG) (B2U)
                 (B2U) (AG) (B3U) (B2G) (AU) (AG) (B3G) (B1G) (B1U)
                 (B3U) (B2G) (B1G) (AG) (B2U) (B1U) (B2U) (AU)
                 (B3G) (B3U) (AG) (B2G) (B3G) (B1G) (B2U) (AU)
                 (AG) (B1U) (AG) (B2U) (B3U) (B1G) (B3G) (B2G)
                 (B2U) (B2U) (AG) (B3G) (B2U) (AG) (B1U) (B3G)
                 (B2U) (AG) (B1U) (AU) (B2U) (B1U) (B3G) (AG) (B3G)
                 (B2U) (B1U) (B1U) (AG) (B2U) (B1U) (B3G) (AG)
                 (B2U) (B2G) (B3G) (AG) (B3G) (AU) (B2U) (B3G)
                 (B2G) (AG) (B1U) (B1U) (AU) (B1G) (B3G) (B1U)
                 (AG) (B2U) (AG) (B3U) (B2U) (AG) (B1U) (B2U) (B3G)
                 (B3U) (B2G) (AU) (B1G) (B1U) (B2U) (AG) (B3G)
                 (B3U) (B3U) (AU) (B2G) (AG) (B2U) (B1U) (B1G)
                 (B2U) (AG) (B3G) (B1U) (B2U) (AG) (B1G) (B3U)
                 (B3G) (B1G) (AG) (B1U) (B2U) (B3G) (B3G) (AG)
                 (B2U) (B3U) (B1U) (B3G) (AG) (AG) (B2U) (B1U)
                 (B1U) (AG) (B2U) (B3G) (B2U) (B1G) (B3U) (B2G)
                 (B1U) (B3G) (B2G) (B2U) (AG) (AU) (B3U) (B1U)
                 (B1G) (B3G) (B1G) (B2G) (B1U) (B2U) (B3G) (AG)
                 (B3U) (AU) (B3U) (B2U) (B1G) (AU) (B3U) (AG) (B3G)
                 (AG) (B2G) (B1G) (B1U) (AG) (B3U) (B1U) (B3G)
                 (B2U) (B2G) (B1U) (B1G) (AU) (B2U) (B3U) (AG)
                 (AU) (B2G) (B3G) (B1G) (AG) (B3U) (B1U) (B3G)
                 (B2U) (B2U) (B1U) (B3U) (B1G) (AG) (B1U) (B2U)
                 (AG) (B1G) (B3G) (B2G) (AU) (B1U) (B2G) (B3G)
                 (B3U) (AG) (AG) (AU) (B2U) (B1G) (B1U) (B3G) (B2G)
                 (B2U) (AG) (B1U) (AU) (B2U) (AG) (B3G) (B1G) (B2G)
                 (B1U) (B3G) (B3U) (AG) (B1U) (B3U) (B2G) (AU)
                 (B2U) (B3G) (B1G) (B1U) (B3U) (B2U) (AG) (B1U)
                 (B3G) (B3U) (AG) (B1G) (AU) (B3G) (B2U) (B1U)
                 (B2U) (B1G) (B3U) (AG) (B3G) (B2G) (B1U) (B3U)
                 (B1U) (B1G) (B3U) (B2G) (B2U) (B3G) (B1U) (B3G)
                 (B1G) (B1U) (AG) (B3U) (B3G) (B2U) (AU) (AG) (AG)
                 (B1U) (B2G) (B2U) (B3G) (AG) (B1G) (B2G) (B3U)
                 (B2U) (B1G) (B3U) (B1U) (AU) (B2U) (AG) (AG) (AU)
                 (B3G) (B2U) (B2G) (B1G) (B3G) (B2U) (AG) (B3U)
                 (AG) (B1U) (AU) (B2G) (B1G) (B3G) (B2U) (B3U)
                 (AU) (B2U) (B2G) (AU) (AG) (B1U) (B1G) (B2U) (AG)
                 (B3G) (B1U) (B3U) (B2G) (AU) (B1U) (B2U) (B1G)
                 (B3U) (B3G) (B2G) (AU) (B3G) (B1G) (B1U) (B3U)
                 (AG) (B1G) (B2U) (AG) (B3G) (AU) (AU) (B1U) (AG)
                 (B2G) (B1G) (AG) (B2U) (B3G) (B1U) (B3U) (B2G)
                 (B2U) (B3U) (B2U) (AG) (B1U) (AG) (B3G) (B1G)
                 (AU) (B1U) (B2U) (AG) (B3G) (B1U) (B3G) (B2G)
                 (B1U) (B1U) (AU) (B3G) (B2G) (B3G) (B3U) (B1G)
                 (AG) (B2U) (AU) (B2U) (B3U) (B3G) (B2G) (AG) (B1U)
                 (B3U) (AU) (B2U) (B3G) (B1G) (B1U) (B2G) (AU)
                 (B1G) (AG) (B1U) (AG) (B2U) (AU) (B3U) (B1G) (B2G)
                 (AU) (B3G) (B2G) (B1U) (B2U) (AG) (B3U) (B1U)
                 (B3G) (B3G) (B3U) (B2G) (B1G) (B1U) (AG) (B2U)
                 (B2U) (B1G) (B3G) (AU) (B2G) (B1U) (B1G) (B2U)
                 (AG) (AU) (AG) (B3G) (B2G) (B1U) (B2G) (B2U) (AU)
                 (B3G) (B1U) (AG) (B3U) (B2U) (AU) (B2G) (B3G)
                 (AG) (AG) (B2U) (B3G) (B2G) (B1U) (AU) (B1U) (B3G)
                 (AG) (B2U) (B1U) (B3G) (B3U) (AU) (B2U) (B1U)
                 (B3G) (AG) (B1G) (B2G) (B2U) (AG) (B1U) (AU) (B3G)
                 (B3U) (B2U) (B2G) (B1U) (AG) (B2U) (B3G) (AG)
                 (B2U) (B1U) (AG) (B3G) (B1U) (B3G) (B1U) (AG)
                 (B2U) (B3G) (B1U) (AG) (B2G) (B2U) (B1G) (B1U)
                 (AU) (B3G) (AG) (B2U) (B1U) (B3G) (B3U) (B3U)
                 (B3G) (AG) (B1U) (B1G) (B2G) (B3G) (B1U) (B1G)
                 (B2U) (AU) (B2G) (B3U) (B1U) (B1G) (B3U) (B2G)
                 (AG) (AU) (AG) (AU) (B2U) (B1U) (B1G) (B3G) (B2U)
                 (B3G) (B1U) (B3U) (B1G) (B3G) (B2G) (B2U) (B1G)
                 (AG) (AG) (B2U) (B3U) (B2G) (AU) (AG) (B3G) (B3G)
                 (B1U) (B3U) (B2U) (AG) (B2U) (AU) (B1U) (B2G)
                 (AG) (B3G) (B3U) (B1G) (B2U) (B1U) (AG) (B1G)
                 (B3U) (B2U) (B1U) (AU) (AG) (AU) (B1U) (B3G) (B2U)
                 (B2G) (AG) (B1U) (AU) (B2U) (B2G) (B3G) (AG) (B1U)
                 (B3G) (B2G) (AU) (B1U) (AG) (B2U) (B3G) (B1G)
                 (B2U) (B1U) (B2G) (B3U) (B3G) (B2G) (AU) (AG)
                 (B3G) (B2U) (B2U) (AG) (AG) (B2U) (B1U) (B3G)
                 (B1U) (AG) (B3G) (B2U) (AU) (B1U) (B2G) (B3G)
                 (B1U) (AG) (B1U) (AU) (B3G) (B2G) (B1U) (B3G)
                 (B2U) (AG) (B3G) (AG) (B2U) (B1U) (B2G) (B3G)
                 (AG) (AU) (B2U) (AG) (AG) (B1U) (B2U) (B1U) (B2U)
                 (B3G) (B1U) (B3G) (B2U) (AG) (AG) (B1U) (B2U)
                 (B3G) (B1U) (B2U) (AG) (B3G) (B1U) (B2U) (AG)
                 (B1U) (B3G) (AG) (B1U) (B2U) (B3G) (AG) (B3G)
                 (B3G) (B2U) (B1U) (B1U) (AG) (B2U) (B3G) (B1U)
                 (B3G) (B1U) (B3G) (B3G) (AG) (B1U) (B1U) (B3G)
                 (B1U) (B3G) (B2U) (B3G) (B1U) (B1U) (B3G) (B1U)
                 (B3G) (B1U) (B3G) (AG) (B2U) (AG) (B1U) (B3G)
                 (B2U) (AG) (B1U) (B2U) (AG) (B2U) (AG) (B2U) (AG)
                 (B3G) (B1U) (B3G) (AG) (B1U) (B2U) (B1U) (B2U)
                 (AG) (B3G) (AG) (B1U) (B2U) (B2U) (B3G) (B1U)
                 (AG) (B3G) (B1U) (B3G) (B1U) (AG) (B3G) (B1U)
                 (B3G) (B1U)
 Beta  Orbitals:
       Occupied  (B1U) (AG) (B3G) (B2U) (B1U) (AG) (B2U) (AG) (B3G)
                 (B1U) (B1U) (B3G) (B2U) (AG) (B3G) (B1U) (B2U)
                 (AG) (B3G) (B1U) (B2U) (AG) (B2U) (AG) (B3G) (B1U)
                 (B2U) (AG) (B3G) (B1U) (B2U) (AG) (B1U) (B3G)
                 (AG) (B1U) (B3G) (B2U) (AG) (B1U) (AG) (B2U) (AG)
                 (B2U) (B1U) (AG) (B2U) (AG) (B3G) (B1U) (AG) (B3G)
                 (B2U) (B1U) (B3G) (AG) (B1U) (B2U) (B1U) (B3G)
                 (B2U) (AG) (B1U) (B3G) (AG) (B2U) (B2U) (AG) (B3G)
                 (AG) (B1U) (B2U) (AG) (B1U) (B2U) (B3G) (B2U)
                 (AG) (AG) (B2U) (B1U) (AG) (B1U) (B2U) (B3G) (AG)
                 (B3G) (B2U) (B1U) (B3G) (AG) (B3G) (B2U) (AG)
                 (B1U) (B3G) (B1U) (B1U) (B3U) (AG) (B3G) (B1G)
                 (B2U) (B3U) (B1U) (B2U) (AG) (B1G) (B3G) (B1U)
                 (B2G) (B2U) (B3U) (B3G) (AG) (B2U) (AG) (B1G)
                 (B3U) (AU) (B2G) (B3U) (AU) (B1G) (B2G) (AU) (B3U)
                 (B2G) (B1G) (AU) (B2G)
       Virtual   (B1G) (B3U) (AU) (B3U) (B1G) (B2G) (B3U) (AU)
                 (B1G) (B2G) (B3U) (B1G) (B2G) (AU) (B1U) (AG)
                 (B2U) (AG) (B3G) (B2G) (B2U) (B1U) (B3U) (AG)
                 (B3G) (AU) (B2U) (AG) (B1U) (B2G) (B2U) (AG) (B3G)
                 (AG) (B1U) (B2U) (AU) (AG) (B1U) (AG) (B1U) (B3G)
                 (B2U) (B2U) (B1U) (B2U) (B3G) (AG) (B1U) (B2G)
                 (B3G) (B1U) (B2U) (AG) (B3G) (B3G) (B2U) (B3U)
                 (B3G) (AG) (B1U) (B1G) (AG) (B1U) (B2U) (AG) (B1U)
                 (B3U) (B3G) (B2U) (AG) (B2G) (B3G) (B1G) (AG)
                 (B1U) (B2U) (AU) (AG) (B3G) (B2U) (B1U) (B3U)
                 (AG) (B2G) (AU) (B2U) (B3G) (B1G) (B3U) (B1U)
                 (AG) (B2U) (B2G) (B1U) (B2U) (B3U) (B2U) (AG)
                 (B1G) (AG) (B1U) (B2U) (AU) (B3U) (B3G) (B1G)
                 (B2G) (B1G) (B3G) (B1U) (AG) (B1U) (B3G) (B2G)
                 (B2U) (B3U) (AG) (B1U) (B3G) (B3U) (AG) (B1U)
                 (B2U) (B3G) (B2U) (AG) (AU) (AG) (B1G) (B2U) (AG)
                 (B3G) (B2G) (B3G) (B1U) (B3U) (B1U) (B2U) (B1G)
                 (AG) (B3G) (B1U) (B2U) (B3U) (AU) (B1U) (AG) (B3G)
                 (AG) (B1U) (B2U) (B3G) (B2U) (AG) (B1U) (B1G)
                 (AU) (B3G) (B2G) (B3U) (B1U) (B2G) (AG) (B2U)
                 (B3G) (B1G) (B1U) (B3G) (B3U) (B1U) (B3G) (AU)
                 (B2U) (B1U) (AG) (B2U) (B3G) (B2G) (B1U) (AG)
                 (AU) (B3G) (B2U) (AG) (B1U) (B2U) (B3U) (B2G)
                 (AG) (B1G) (B3G) (B1U) (AG) (B2U) (AG) (B3G) (B1U)
                 (B1G) (B3U) (B2U) (B3G) (B1U) (B1U) (AG) (B2U)
                 (B3U) (B3G) (AU) (B3G) (B2G) (AG) (B1G) (B1U)
                 (B3G) (B2U) (B1U) (B1U) (B3G) (B1U) (B1G) (B3U)
                 (AG) (B3G) (B2G) (B2U) (AU) (AG) (B1U) (B1U) (B3G)
                 (B3G) (AG) (AG) (B1U) (B2U) (B3G) (B2U) (B1G)
                 (B2U) (B3U) (AG) (AU) (B1U) (B2G) (B1U) (AG) (AU)
                 (B3U) (B3G) (B2G) (B2U) (B2U) (B3G) (AG) (B1G)
                 (B2U) (AU) (B1U) (AG) (B1G) (AG) (B3U) (B3G) (B2U)
                 (AG) (B1U) (B2U) (B1U) (B2G) (AG) (B3G) (B1U)
                 (B1G) (AG) (B2U) (AU) (B2U) (AG) (B2U) (AG) (B2G)
                 (B1U) (B2U) (B3U) (AG) (B3G) (AG) (B2U) (B2U)
                 (B3G) (B3U) (B3G) (B1U) (B3G) (AG) (B1G) (AU)
                 (B1U) (B2U) (B3G) (AG) (B1U) (B1G) (B3U) (AG)
                 (B2U) (B2G) (AG) (B2G) (B1U) (B2U) (B3G) (AU)
                 (B3G) (AG) (B1G) (B2U) (B2U) (B1U) (B2U) (AU)
                 (B1U) (B3G) (B3U) (B3G) (B1U) (B2G) (AU) (B1U)
                 (AG) (AG) (B2U) (B1U) (AG) (B3G) (B2G) (B3U) (B1G)
                 (B2U) (AG) (AG) (B3G) (B3U) (B1U) (AU) (B3G) (B2G)
                 (B1U) (B2U) (B1G) (B2G) (AG) (B3U) (AU) (B3U)
                 (B1G) (AG) (B3G) (B2U) (B3U) (B1G) (AG) (B2U)
                 (B1U) (B2G) (B1G) (B3G) (B1U) (AG) (B2U) (B3G)
                 (AG) (B3G) (AU) (B1U) (B2G) (B2U) (AG) (B1U) (B2U)
                 (B3U) (AU) (B1G) (B2G) (B3G) (B1U) (B1U) (B2U)
                 (AG) (B2U) (B3U) (B3G) (B1G) (AG) (B1U) (B3G)
                 (B3G) (B3U) (AU) (B2G) (B1U) (AG) (B3G) (B3U)
                 (B2U) (B1G) (B1U) (B3G) (AG) (B2G) (AU) (B2U)
                 (B3G) (B1U) (B3U) (B1U) (AG) (B2U) (B2G) (B3G)
                 (B1G) (B1U) (B2U) (AG) (AU) (B1U) (B3G) (B3U)
                 (B1U) (B2U) (B2G) (AU) (AG) (B1G) (B3U) (B3G)
                 (AG) (B2U) (AU) (AG) (B2U) (B3G) (B1U) (B2G) (B2U)
                 (B3U) (B3G) (B1U) (B1G) (AG) (B3G) (B1U) (AG)
                 (B2U) (AG) (B2U) (B1U) (B2G) (AG) (AU) (B2U) (B3G)
                 (B1U) (AG) (AU) (B2U) (B2G) (B3U) (B3G) (B1G)
                 (AG) (AU) (B1U) (B2G) (B2U) (B3G) (B1U) (B1G)
                 (AU) (AG) (B2G) (B1U) (B3G) (B3U) (B1G) (AG) (B3U)
                 (B2U) (B2G) (AG) (B1U) (B1G) (AU) (B1U) (B2U)
                 (B2G) (B3G) (AG) (B3U) (B3G) (B3G) (B1U) (B1U)
                 (B2U) (B3G) (AU) (B1G) (B1U) (B2U) (B3U) (AG)
                 (B3G) (B1U) (B1G) (B2G) (B3U) (AU) (B2G) (B2G)
                 (B3G) (AU) (B1G) (B3U) (B2G) (AU) (B1U) (AG) (B2U)
                 (B2U) (AG) (B3U) (B2G) (AU) (AG) (B3G) (B1G) (B1U)
                 (B3U) (B2G) (B1G) (AG) (B2U) (B1U) (B2U) (AU)
                 (B3G) (B3U) (AG) (B2G) (B3G) (B1G) (B2U) (AU)
                 (AG) (B1U) (AG) (B2U) (B3U) (B1G) (B3G) (B2G)
                 (B2U) (B2U) (AG) (B3G) (B2U) (AG) (B1U) (B3G)
                 (B2U) (AG) (B1U) (AU) (B2U) (B1U) (B3G) (AG) (B3G)
                 (B2U) (B1U) (B1U) (AG) (B2U) (B1U) (B3G) (AG)
                 (B2U) (B2G) (B3G) (AG) (B3G) (AU) (B2U) (B3G)
                 (B2G) (AG) (B1U) (B1U) (AU) (B1G) (B3G) (B1U)
                 (AG) (B2U) (AG) (B3U) (B2U) (AG) (B1U) (B2U) (B3G)
                 (B3U) (B2G) (AU) (B1G) (B1U) (B2U) (AG) (B3G)
                 (B3U) (B3U) (AU) (B2G) (AG) (B2U) (B1U) (B1G)
                 (B2U) (AG) (B3G) (B1U) (B2U) (AG) (B1G) (B3U)
                 (B3G) (B1G) (AG) (B1U) (B2U) (B3G) (B3G) (AG)
                 (B2U) (B3U) (B1U) (B3G) (AG) (AG) (B2U) (B1U)
                 (B1U) (AG) (B2U) (B3G) (B2U) (B1G) (B3U) (B2G)
                 (B1U) (B3G) (B2G) (B2U) (AG) (AU) (B3U) (B1U)
                 (B1G) (B3G) (B1G) (B2G) (B1U) (B2U) (B3G) (AG)
                 (B3U) (AU) (B3U) (B2U) (B1G) (AU) (B3U) (AG) (B3G)
                 (AG) (B2G) (B1G) (B1U) (AG) (B3U) (B1U) (B3G)
                 (B2U) (B2G) (B1U) (B1G) (AU) (B2U) (B3U) (AG)
                 (AU) (B2G) (B3G) (B1G) (AG) (B3U) (B1U) (B3G)
                 (B2U) (B2U) (B1U) (B3U) (B1G) (AG) (B1U) (B2U)
                 (AG) (B1G) (B3G) (B2G) (AU) (B1U) (B2G) (B3G)
                 (B3U) (AG) (AG) (AU) (B2U) (B1G) (B1U) (B3G) (B2G)
                 (B2U) (AG) (B1U) (AU) (B2U) (AG) (B3G) (B1G) (B2G)
                 (B1U) (B3G) (B3U) (AG) (B1U) (B3U) (B2G) (AU)
                 (B2U) (B3G) (B1G) (B1U) (B3U) (B2U) (AG) (B1U)
                 (B3G) (B3U) (AG) (B1G) (AU) (B3G) (B2U) (B1U)
                 (B2U) (B1G) (B3U) (AG) (B3G) (B2G) (B1U) (B3U)
                 (B1U) (B1G) (B3U) (B2G) (B2U) (B3G) (B1U) (B3G)
                 (B1G) (B1U) (AG) (B3U) (B3G) (B2U) (AU) (AG) (AG)
                 (B1U) (B2G) (B2U) (B3G) (AG) (B1G) (B2G) (B3U)
                 (B2U) (B1G) (B3U) (B1U) (AU) (B2U) (AG) (AG) (AU)
                 (B3G) (B2U) (B2G) (B1G) (B3G) (B2U) (AG) (B3U)
                 (AG) (B1U) (AU) (B2G) (B1G) (B3G) (B2U) (B3U)
                 (AU) (B2U) (B2G) (AU) (AG) (B1U) (B1G) (B2U) (AG)
                 (B3G) (B1U) (B3U) (B2G) (AU) (B1U) (B2U) (B1G)
                 (B3U) (B3G) (B2G) (AU) (B3G) (B1G) (B1U) (B3U)
                 (AG) (B1G) (B2U) (AG) (B3G) (AU) (AU) (B1U) (AG)
                 (B2G) (B1G) (AG) (B2U) (B3G) (B1U) (B3U) (B2G)
                 (B2U) (B3U) (B2U) (AG) (B1U) (AG) (B3G) (B1G)
                 (AU) (B1U) (B2U) (AG) (B3G) (B1U) (B3G) (B2G)
                 (B1U) (B1U) (AU) (B3G) (B2G) (B3G) (B3U) (B1G)
                 (AG) (B2U) (AU) (B2U) (B3U) (B3G) (B2G) (AG) (B1U)
                 (B3U) (AU) (B2U) (B3G) (B1G) (B1U) (B2G) (AU)
                 (B1G) (AG) (B1U) (AG) (B2U) (AU) (B3U) (B1G) (B2G)
                 (AU) (B3G) (B2G) (B1U) (B2U) (AG) (B3U) (B1U)
                 (B3G) (B3G) (B3U) (B2G) (B1G) (B1U) (AG) (B2U)
                 (B2U) (B1G) (B3G) (AU) (B2G) (B1U) (B1G) (B2U)
                 (AG) (AU) (AG) (B3G) (B2G) (B1U) (B2G) (B2U) (AU)
                 (B3G) (B1U) (AG) (B3U) (B2U) (AU) (B2G) (B3G)
                 (AG) (AG) (B2U) (B3G) (B2G) (B1U) (AU) (B1U) (B3G)
                 (AG) (B2U) (B1U) (B3G) (B3U) (AU) (B2U) (B1U)
                 (B3G) (AG) (B1G) (B2G) (B2U) (AG) (B1U) (AU) (B3G)
                 (B3U) (B2U) (B2G) (B1U) (AG) (B2U) (B3G) (AG)
                 (B2U) (B1U) (AG) (B3G) (B1U) (B3G) (B1U) (AG)
                 (B2U) (B3G) (B1U) (AG) (B2G) (B2U) (B1G) (B1U)
                 (AU) (B3G) (AG) (B2U) (B1U) (B3G) (B3U) (B3U)
                 (B3G) (AG) (B1U) (B1G) (B2G) (B3G) (B1U) (B1G)
                 (B2U) (AU) (B2G) (B3U) (B1U) (B1G) (B3U) (B2G)
                 (AG) (AU) (AG) (AU) (B2U) (B1U) (B1G) (B3G) (B2U)
                 (B3G) (B1U) (B3U) (B1G) (B3G) (B2G) (B2U) (B1G)
                 (AG) (AG) (B2U) (B3U) (B2G) (AU) (AG) (B3G) (B3G)
                 (B1U) (B3U) (B2U) (AG) (B2U) (AU) (B1U) (B2G)
                 (AG) (B3G) (B3U) (B1G) (B2U) (B1U) (AG) (B1G)
                 (B3U) (B2U) (B1U) (AU) (AG) (AU) (B1U) (B3G) (B2U)
                 (B2G) (AG) (B1U) (AU) (B2U) (B2G) (B3G) (AG) (B1U)
                 (B3G) (B2G) (AU) (B1U) (AG) (B2U) (B3G) (B1G)
                 (B2U) (B1U) (B2G) (B3U) (B3G) (B2G) (AU) (AG)
                 (B3G) (B2U) (B2U) (AG) (AG) (B2U) (B1U) (B3G)
                 (B1U) (AG) (B3G) (B2U) (AU) (B1U) (B2G) (B3G)
                 (B1U) (AG) (B1U) (AU) (B3G) (B2G) (B1U) (B3G)
                 (B2U) (AG) (B3G) (AG) (B2U) (B1U) (B2G) (B3G)
                 (AG) (AU) (B2U) (AG) (AG) (B1U) (B2U) (B1U) (B2U)
                 (B3G) (B1U) (B3G) (B2U) (AG) (AG) (B1U) (B2U)
                 (B3G) (B1U) (B2U) (AG) (B3G) (B1U) (B2U) (AG)
                 (B1U) (B3G) (AG) (B1U) (B2U) (B3G) (AG) (B3G)
                 (B3G) (B2U) (B1U) (B1U) (AG) (B2U) (B3G) (B1U)
                 (B3G) (B1U) (B3G) (B3G) (AG) (B1U) (B1U) (B3G)
                 (B1U) (B3G) (B2U) (B3G) (B1U) (B1U) (B3G) (B1U)
                 (B3G) (B1U) (B3G) (AG) (B2U) (AG) (B1U) (B3G)
                 (B2U) (AG) (B1U) (B2U) (AG) (B2U) (AG) (B2U) (AG)
                 (B3G) (B1U) (B3G) (AG) (B1U) (B2U) (B1U) (B2U)
                 (AG) (B3G) (AG) (B1U) (B2U) (B2U) (B3G) (B1U)
                 (AG) (B3G) (B1U) (B3G) (B1U) (AG) (B3G) (B1U)
                 (B3G) (B1U)
 The electronic state of the initial guess is 1-AG.
 Initial guess <Sx>= 0.0000 <Sy>= 0.0000 <Sz>= 0.0000 <S**2>=-0.0000 S=-0.0000
 Leave Link  401 at Mon Jan 20 22:57:50 2020, MaxMem=  6710886400 cpu:             100.7 elap:               6.4
 (Enter /opt/ohpc/pub/libs/gaussian/g16-A.03/sandybridge/g16/l502.exe)
 Integral symmetry usage will be decided dynamically.
 UHF open shell SCF:
 Using DIIS extrapolation, IDIIS=  1040.
 NGot=  6710886400 LenX=  6705881246 LenY=  6703408490
 Requested convergence on RMS density matrix=1.00D-08 within 128 cycles.
 Requested convergence on MAX density matrix=1.00D-06.
 Requested convergence on             energy=1.00D-06.
 No special actions if energy rises.
 Fock matrices will be formed incrementally for  20 cycles.
 Integral accuracy reduced to 1.0D-05 until final iterations.

 Cycle   1  Pass 0  IDiag  1:
 FoFJK:  IHMeth= 1 ICntrl=       0 DoSepK=T KAlg= 0 I1Cent=           0 FoldK=F
 IRaf=         1 NMat=       1 IRICut=       1 DoRegI=T DoRafI=F ISym2E= 1 IDoP0=0 IntGTp=1.
 FoFCou: FMM=F IPFlag=           0 FMFlag=      100000 FMFlg1=        2000
         NFxFlg=           0 DoJE=T BraDBF=F KetDBF=F FulRan=T
         wScrn=  0.000000 ICntrl=       500 IOpCl=  0 I1Cent=           0 NGrid=           0
         NMat0=    1 NMatS0=      1 NMatT0=    0 NMatD0=    1 NMtDS0=    0 NMtDT0=    0
 Petite list used in FoFCou.
 E= -1536.09537525456    
 DIIS: error= 2.03D-02 at cycle   1 NSaved=   1.
 NSaved= 1 IEnMin= 1 EnMin= -1536.09537525456     IErMin= 1 ErrMin= 2.03D-02
 ErrMax= 2.03D-02  0.00D+00 EMaxC= 1.00D-01 BMatC= 2.12D+00 BMatP= 2.12D+00
 IDIUse=3 WtCom= 7.97D-01 WtEn= 2.03D-01
 Coeff-Com:  0.100D+01
 Coeff-En:   0.100D+01
 Coeff:      0.100D+01
 Gap=     0.206 Goal=   None    Shift=    0.000
 Gap=     0.206 Goal=   None    Shift=    0.000
 GapD=    0.206 DampG=1.000 DampE=0.500 DampFc=0.5000 IDamp=-1.
 Damping current iteration by 5.00D-01
 RMSDP=3.36D+02 MaxDP=5.33D+04              OVMax= 9.97D-01

 Problem detected with inexpensive integrals.
 Switching to full accuracy and repeating last cycle.
 Cycle   2  Pass 1  IDiag  1:
 E= -1536.09575037804     Delta-E=       -0.000375123484 Rises=F Damp=F
 DIIS: error= 2.03D-02 at cycle   1 NSaved=   1.
 NSaved= 1 IEnMin= 1 EnMin= -1536.09575037804     IErMin= 1 ErrMin= 2.03D-02
 ErrMax= 2.03D-02  0.00D+00 EMaxC= 1.00D-01 BMatC= 2.08D+00 BMatP= 2.08D+00
 IDIUse=3 WtCom= 7.97D-01 WtEn= 2.03D-01
 Coeff-Com:  0.100D+01
 Coeff-En:   0.100D+01
 Coeff:      0.100D+01
 Gap=     0.206 Goal=   None    Shift=    0.000
 Gap=     0.206 Goal=   None    Shift=    0.000
 GapD=    0.206 DampG=1.000 DampE=0.500 DampFc=0.5000 IDamp=-1.
 Damping current iteration by 5.00D-01
 RMSDP=1.15D-03 MaxDP=4.41D-02 DE=-3.75D-04 OVMax= 1.15D-01

 Cycle   3  Pass 1  IDiag  1:
 RMSU=  5.59D-04    CP:  9.74D-01
 E= -1536.37853887310     Delta-E=       -0.282788495060 Rises=F Damp=T
 DIIS: error= 6.16D-03 at cycle   2 NSaved=   2.
 NSaved= 2 IEnMin= 2 EnMin= -1536.37853887310     IErMin= 2 ErrMin= 6.16D-03
 ErrMax= 6.16D-03  0.00D+00 EMaxC= 1.00D-01 BMatC= 1.42D-01 BMatP= 2.08D+00
 IDIUse=3 WtCom= 9.38D-01 WtEn= 6.16D-02
 Coeff-Com: -0.150D+00 0.115D+01
 Coeff-En:   0.000D+00 0.100D+01
 Coeff:     -0.141D+00 0.114D+01
 Gap=     0.214 Goal=   None    Shift=    0.000
 Gap=     0.214 Goal=   None    Shift=    0.000
 GapD=    0.214 DampG=1.000 DampE=1.000 DampFc=1.0000 IDamp=-1.
 RMSDP=4.35D-04 MaxDP=3.07D-02 DE=-2.83D-01 OVMax= 6.59D-02

 Cycle   4  Pass 1  IDiag  1:
 RMSU=  3.97D-04    CP:  9.40D-01  1.14D+00
 E= -1536.61940655029     Delta-E=       -0.240867677184 Rises=F Damp=F
 DIIS: error= 5.46D-03 at cycle   3 NSaved=   3.
 NSaved= 3 IEnMin= 3 EnMin= -1536.61940655029     IErMin= 3 ErrMin= 5.46D-03
 ErrMax= 5.46D-03  0.00D+00 EMaxC= 1.00D-01 BMatC= 6.51D-02 BMatP= 1.42D-01
 IDIUse=3 WtCom= 9.45D-01 WtEn= 5.46D-02
 Coeff-Com: -0.103D+00 0.508D+00 0.595D+00
 Coeff-En:   0.000D+00 0.000D+00 0.100D+01
 Coeff:     -0.973D-01 0.480D+00 0.617D+00
 Gap=     0.211 Goal=   None    Shift=    0.000
 Gap=     0.211 Goal=   None    Shift=    0.000
 RMSDP=1.31D-04 MaxDP=1.12D-02 DE=-2.41D-01 OVMax= 3.88D-02

 Cycle   5  Pass 1  IDiag  1:
 RMSU=  1.20D-04    CP:  9.45D-01  1.12D+00  8.76D-01
 E= -1536.63015089693     Delta-E=       -0.010744346642 Rises=F Damp=F
 DIIS: error= 3.67D-03 at cycle   4 NSaved=   4.
 NSaved= 4 IEnMin= 4 EnMin= -1536.63015089693     IErMin= 4 ErrMin= 3.67D-03
 ErrMax= 3.67D-03  0.00D+00 EMaxC= 1.00D-01 BMatC= 2.19D-02 BMatP= 6.51D-02
 IDIUse=3 WtCom= 9.63D-01 WtEn= 3.67D-02
 Coeff-Com: -0.345D-01 0.134D+00 0.383D+00 0.517D+00
 Coeff-En:   0.000D+00 0.000D+00 0.286D+00 0.714D+00
 Coeff:     -0.333D-01 0.129D+00 0.380D+00 0.525D+00
 Gap=     0.210 Goal=   None    Shift=    0.000
 Gap=     0.210 Goal=   None    Shift=    0.000
 RMSDP=5.10D-05 MaxDP=3.51D-03 DE=-1.07D-02 OVMax= 1.63D-02

 Cycle   6  Pass 1  IDiag  1:
 RMSU=  4.39D-05    CP:  9.45D-01  1.13D+00  8.80D-01  7.87D-01
 E= -1536.63590101694     Delta-E=       -0.005750120015 Rises=F Damp=F
 DIIS: error= 4.83D-04 at cycle   5 NSaved=   5.
 NSaved= 5 IEnMin= 5 EnMin= -1536.63590101694     IErMin= 5 ErrMin= 4.83D-04
 ErrMax= 4.83D-04  0.00D+00 EMaxC= 1.00D-01 BMatC= 5.33D-04 BMatP= 2.19D-02
 IDIUse=3 WtCom= 9.95D-01 WtEn= 4.83D-03
 Coeff-Com: -0.912D-02 0.323D-01 0.130D+00 0.227D+00 0.620D+00
 Coeff-En:   0.000D+00 0.000D+00 0.000D+00 0.000D+00 0.100D+01
 Coeff:     -0.907D-02 0.321D-01 0.130D+00 0.226D+00 0.621D+00
 Gap=     0.210 Goal=   None    Shift=    0.000
 Gap=     0.210 Goal=   None    Shift=    0.000
 RMSDP=1.40D-05 MaxDP=9.30D-04 DE=-5.75D-03 OVMax= 2.98D-03

 Cycle   7  Pass 1  IDiag  1:
 RMSU=  1.17D-05    CP:  9.46D-01  1.13D+00  8.92D-01  8.32D-01  1.02D+00
 E= -1536.63602565310     Delta-E=       -0.000124636153 Rises=F Damp=F
 DIIS: error= 2.44D-04 at cycle   6 NSaved=   6.
 NSaved= 6 IEnMin= 6 EnMin= -1536.63602565310     IErMin= 6 ErrMin= 2.44D-04
 ErrMax= 2.44D-04  0.00D+00 EMaxC= 1.00D-01 BMatC= 8.11D-05 BMatP= 5.33D-04
 IDIUse=3 WtCom= 9.98D-01 WtEn= 2.44D-03
 Coeff-Com: -0.821D-03 0.230D-02 0.249D-01 0.590D-01 0.321D+00 0.594D+00
 Coeff-En:   0.000D+00 0.000D+00 0.000D+00 0.000D+00 0.179D-01 0.982D+00
 Coeff:     -0.819D-03 0.229D-02 0.248D-01 0.588D-01 0.320D+00 0.595D+00
 Gap=     0.210 Goal=   None    Shift=    0.000
 Gap=     0.210 Goal=   None    Shift=    0.000
 RMSDP=5.21D-06 MaxDP=3.64D-04 DE=-1.25D-04 OVMax= 1.36D-03

 Cycle   8  Pass 1  IDiag  1:
 RMSU=  3.84D-06    CP:  9.46D-01  1.13D+00  8.95D-01  8.49D-01  1.07D+00
                    CP:  1.07D+00
 E= -1536.63604911168     Delta-E=       -0.000023458580 Rises=F Damp=F
 DIIS: error= 7.96D-05 at cycle   7 NSaved=   7.
 NSaved= 7 IEnMin= 7 EnMin= -1536.63604911168     IErMin= 7 ErrMin= 7.96D-05
 ErrMax= 7.96D-05  0.00D+00 EMaxC= 1.00D-01 BMatC= 3.79D-06 BMatP= 8.11D-05
 IDIUse=1 WtCom= 1.00D+00 WtEn= 0.00D+00
 Coeff-Com:  0.106D-02-0.393D-02-0.110D-01-0.156D-01 0.376D-02 0.141D+00
 Coeff-Com:  0.884D+00
 Coeff:      0.106D-02-0.393D-02-0.110D-01-0.156D-01 0.376D-02 0.141D+00
 Coeff:      0.884D+00
 Gap=     0.210 Goal=   None    Shift=    0.000
 Gap=     0.210 Goal=   None    Shift=    0.000
 RMSDP=3.22D-06 MaxDP=2.27D-04 DE=-2.35D-05 OVMax= 7.01D-04

 Cycle   9  Pass 1  IDiag  1:
 RMSU=  1.45D-06    CP:  9.46D-01  1.12D+00  8.96D-01  8.60D-01  1.11D+00
                    CP:  1.19D+00  1.13D+00
 E= -1536.63605139159     Delta-E=       -0.000002279912 Rises=F Damp=F
 DIIS: error= 4.43D-05 at cycle   8 NSaved=   8.
 NSaved= 8 IEnMin= 8 EnMin= -1536.63605139159     IErMin= 8 ErrMin= 4.43D-05
 ErrMax= 4.43D-05  0.00D+00 EMaxC= 1.00D-01 BMatC= 1.47D-06 BMatP= 3.79D-06
 IDIUse=1 WtCom= 1.00D+00 WtEn= 0.00D+00
 Coeff-Com:  0.653D-03-0.235D-02-0.948D-02-0.173D-01-0.442D-01-0.115D-01
 Coeff-Com:  0.462D+00 0.622D+00
 Coeff:      0.653D-03-0.235D-02-0.948D-02-0.173D-01-0.442D-01-0.115D-01
 Coeff:      0.462D+00 0.622D+00
 Gap=     0.210 Goal=   None    Shift=    0.000
 Gap=     0.210 Goal=   None    Shift=    0.000
 RMSDP=8.71D-07 MaxDP=5.53D-05 DE=-2.28D-06 OVMax= 3.08D-04

 Cycle  10  Pass 1  IDiag  1:
 RMSU=  4.46D-07    CP:  9.46D-01  1.12D+00  8.96D-01  8.63D-01  1.12D+00
                    CP:  1.22D+00  1.23D+00  1.08D+00
 E= -1536.63605195239     Delta-E=       -0.000000560796 Rises=F Damp=F
 DIIS: error= 1.17D-05 at cycle   9 NSaved=   9.
 NSaved= 9 IEnMin= 9 EnMin= -1536.63605195239     IErMin= 9 ErrMin= 1.17D-05
 ErrMax= 1.17D-05  0.00D+00 EMaxC= 1.00D-01 BMatC= 7.43D-08 BMatP= 1.47D-06
 IDIUse=1 WtCom= 1.00D+00 WtEn= 0.00D+00
 Coeff-Com: -0.378D-04 0.906D-04-0.276D-03-0.113D-02-0.804D-02-0.198D-01
 Coeff-Com: -0.386D-01 0.134D+00 0.934D+00
 Coeff:     -0.378D-04 0.906D-04-0.276D-03-0.113D-02-0.804D-02-0.198D-01
 Coeff:     -0.386D-01 0.134D+00 0.934D+00
 Gap=     0.210 Goal=   None    Shift=    0.000
 Gap=     0.210 Goal=   None    Shift=    0.000
 RMSDP=2.61D-07 MaxDP=1.30D-05 DE=-5.61D-07 OVMax= 1.19D-04

 Cycle  11  Pass 1  IDiag  1:
 RMSU=  2.13D-07    CP:  9.46D-01  1.12D+00  8.96D-01  8.63D-01  1.12D+00
                    CP:  1.22D+00  1.24D+00  1.14D+00  1.14D+00
 E= -1536.63605200681     Delta-E=       -0.000000054420 Rises=F Damp=F
 DIIS: error= 2.79D-06 at cycle  10 NSaved=  10.
 NSaved=10 IEnMin=10 EnMin= -1536.63605200681     IErMin=10 ErrMin= 2.79D-06
 ErrMax= 2.79D-06  0.00D+00 EMaxC= 1.00D-01 BMatC= 1.55D-08 BMatP= 7.43D-08
 IDIUse=1 WtCom= 1.00D+00 WtEn= 0.00D+00
 Coeff-Com: -0.899D-04 0.298D-03 0.880D-03 0.140D-02 0.129D-02-0.675D-02
 Coeff-Com: -0.660D-01-0.976D-02 0.396D+00 0.683D+00
 Coeff:     -0.899D-04 0.298D-03 0.880D-03 0.140D-02 0.129D-02-0.675D-02
 Coeff:     -0.660D-01-0.976D-02 0.396D+00 0.683D+00
 Gap=     0.210 Goal=   None    Shift=    0.000
 Gap=     0.210 Goal=   None    Shift=    0.000
 RMSDP=1.01D-07 MaxDP=6.73D-06 DE=-5.44D-08 OVMax= 3.06D-05

 Cycle  12  Pass 1  IDiag  1:
 RMSU=  6.36D-08    CP:  9.46D-01  1.12D+00  8.96D-01  8.63D-01  1.12D+00
                    CP:  1.22D+00  1.24D+00  1.16D+00  1.22D+00  1.11D+00
 E= -1536.63605201317     Delta-E=       -0.000000006367 Rises=F Damp=F
 DIIS: error= 1.07D-06 at cycle  11 NSaved=  11.
 NSaved=11 IEnMin=11 EnMin= -1536.63605201317     IErMin=11 ErrMin= 1.07D-06
 ErrMax= 1.07D-06  0.00D+00 EMaxC= 1.00D-01 BMatC= 2.15D-09 BMatP= 1.55D-08
 IDIUse=1 WtCom= 1.00D+00 WtEn= 0.00D+00
 Coeff-Com: -0.359D-04 0.124D-03 0.444D-03 0.839D-03 0.176D-02-0.263D-04
 Coeff-Com: -0.248D-01-0.260D-01 0.346D-01 0.294D+00 0.719D+00
 Coeff:     -0.359D-04 0.124D-03 0.444D-03 0.839D-03 0.176D-02-0.263D-04
 Coeff:     -0.248D-01-0.260D-01 0.346D-01 0.294D+00 0.719D+00
 Gap=     0.210 Goal=   None    Shift=    0.000
 Gap=     0.210 Goal=   None    Shift=    0.000
 RMSDP=4.92D-08 MaxDP=3.51D-06 DE=-6.37D-09 OVMax= 1.16D-05

 Cycle  13  Pass 1  IDiag  1:
 RMSU=  2.88D-08    CP:  9.46D-01  1.12D+00  8.96D-01  8.62D-01  1.12D+00
                    CP:  1.22D+00  1.24D+00  1.16D+00  1.24D+00  1.16D+00
                    CP:  1.21D+00
 E= -1536.63605201447     Delta-E=       -0.000000001297 Rises=F Damp=F
 DIIS: error= 3.66D-07 at cycle  12 NSaved=  12.
 NSaved=12 IEnMin=12 EnMin= -1536.63605201447     IErMin=12 ErrMin= 3.66D-07
 ErrMax= 3.66D-07  0.00D+00 EMaxC= 1.00D-01 BMatC= 1.53D-10 BMatP= 2.15D-09
 IDIUse=1 WtCom= 1.00D+00 WtEn= 0.00D+00
 Coeff-Com:  0.447D-06-0.144D-06 0.205D-04 0.724D-04 0.301D-03 0.714D-03
 Coeff-Com:  0.537D-03-0.527D-02-0.313D-01-0.211D-02 0.171D+00 0.866D+00
 Coeff:      0.447D-06-0.144D-06 0.205D-04 0.724D-04 0.301D-03 0.714D-03
 Coeff:      0.537D-03-0.527D-02-0.313D-01-0.211D-02 0.171D+00 0.866D+00
 Gap=     0.210 Goal=   None    Shift=    0.000
 Gap=     0.210 Goal=   None    Shift=    0.000
 RMSDP=1.96D-08 MaxDP=9.43D-07 DE=-1.30D-09 OVMax= 4.53D-06

 Cycle  14  Pass 1  IDiag  1:
 RMSU=  9.55D-09    CP:  9.46D-01  1.12D+00  8.96D-01  8.62D-01  1.12D+00
                    CP:  1.22D+00  1.24D+00  1.16D+00  1.24D+00  1.18D+00
                    CP:  1.34D+00  1.22D+00
 E= -1536.63605201457     Delta-E=       -0.000000000098 Rises=F Damp=F
 DIIS: error= 1.97D-07 at cycle  13 NSaved=  13.
 NSaved=13 IEnMin=13 EnMin= -1536.63605201457     IErMin=13 ErrMin= 1.97D-07
 ErrMax= 1.97D-07  0.00D+00 EMaxC= 1.00D-01 BMatC= 6.49D-11 BMatP= 1.53D-10
 IDIUse=1 WtCom= 1.00D+00 WtEn= 0.00D+00
 Coeff-Com:  0.671D-05-0.221D-04-0.702D-04-0.115D-03-0.155D-03 0.436D-03
 Coeff-Com:  0.500D-02 0.207D-02-0.231D-01-0.554D-01-0.447D-01 0.450D+00
 Coeff-Com:  0.666D+00
 Coeff:      0.671D-05-0.221D-04-0.702D-04-0.115D-03-0.155D-03 0.436D-03
 Coeff:      0.500D-02 0.207D-02-0.231D-01-0.554D-01-0.447D-01 0.450D+00
 Coeff:      0.666D+00
 Gap=     0.210 Goal=   None    Shift=    0.000
 Gap=     0.210 Goal=   None    Shift=    0.000
 RMSDP=6.49D-09 MaxDP=2.90D-07 DE=-9.82D-11 OVMax= 2.55D-06

 SCF Done:  E(ULC-wHPBE) =  -1536.63605201     A.U. after   14 cycles
            NFock= 14  Conv=0.65D-08     -V/T= 2.0052
 <Sx>= 0.0000 <Sy>= 0.0000 <Sz>= 0.0000 <S**2>=-0.0000 S=-0.0000
 <L.S>= 0.000000000000E+00
 KE= 1.528697534519D+03 PE=-1.099485925889D+04 EE= 4.215317853744D+03
 Annihilation of the first spin contaminant:
 S**2 before annihilation    -0.0000,   after    -0.0000
 Leave Link  502 at Mon Jan 20 23:16:33 2020, MaxMem=  6710886400 cpu:           17930.9 elap:            1123.0
 (Enter /opt/ohpc/pub/libs/gaussian/g16-A.03/sandybridge/g16/l801.exe)
 DoSCS=F DFT=T ScalE2(SS,OS)=  1.000000  1.000000
 ExpMin= 9.52D-02 ExpMax= 1.36D+04 ExpMxC= 4.63D+02 IAcc=3 IRadAn=         5 AccDes= 0.00D+00
 HarFok:  IExCor=  205 AccDes= 0.00D+00 IRadAn=         5 IDoV=-2 UseB2=F ITyADJ=14
 ICtDFT= 12500011 ScaDFX=  1.000000  1.000000  1.000000  1.000000
 GSVD:  LWork=       -1920 too small for GESVD, short by        8600 words or        8600 for optimal perf.
 Largest valence mixing into a core orbital is  5.58D-05
 Largest core mixing into a valence orbital is  1.81D-05
 Largest valence mixing into a core orbital is  5.58D-05
 Largest core mixing into a valence orbital is  1.81D-05
 Range of M.O.s used for correlation:    41  1371
 NBasis=  1372 NAE=   131 NBE=   131 NFC=    40 NFV=     0
 NROrb=   1331 NOA=    91 NOB=    91 NVA=  1240 NVB=  1240

 **** Warning!!: The largest alpha MO coefficient is  0.10145025D+03


 **** Warning!!: The largest beta MO coefficient is  0.10145025D+03

 Leave Link  801 at Mon Jan 20 23:16:35 2020, MaxMem=  6710886400 cpu:              15.0 elap:               1.0
 (Enter /opt/ohpc/pub/libs/gaussian/g16-A.03/sandybridge/g16/l914.exe)
 UHF ground state
 Two-electron integrals replicated using symmetry.
 MDV=  6710886400 DFT=T DoStab=F Mixed=T DoRPA=T DoScal=F NonHer=T
 Making orbital integer symmetry assigments:
 Orbital symmetries:
 Alpha Orbitals:
       Occupied  (AG) (B1U) (B2U) (AG) (B3G) (B1U) (B2U) (B3G)
                 (B1U) (AG) (B2U) (AG) (B3G) (B1U) (B2U) (AG) (B3G)
                 (B1U) (B3G) (B1U) (B2U) (AG) (B1U) (B3G) (B2U)
                 (AG) (B2U) (AG) (B3G) (B1U) (B2U) (AG) (B3G) (B1U)
                 (B1U) (AG) (B3G) (B2U) (B1U) (AG) (AG) (B2U) (AG)
                 (B2U) (B1U) (AG) (B2U) (AG) (B3G) (B1U) (AG) (B3G)
                 (B2U) (B1U) (AG) (B3G) (B1U) (B2U) (B1U) (B3G)
                 (B2U) (AG) (AG) (B3G) (B1U) (B2U) (B2U) (AG) (AG)
                 (B3G) (B2U) (B1U) (AG) (B1U) (B3G) (B2U) (AG)
                 (B2U) (AG) (B1U) (B2U) (AG) (B1U) (B3G) (B3G)
                 (B1U) (AG) (B2U) (B3U) (B2U) (B3G) (B3G) (AG)
                 (B1G) (B1U) (B3G) (B3U) (AG) (B1U) (B2U) (AG)
                 (B1U) (B1G) (B2U) (B2G) (B3G) (B3U) (B1U) (B2U)
                 (AG) (B3G) (B2U) (B1G) (B1U) (AG) (B2U) (AU) (B3U)
                 (B3G) (B2G) (AG) (B3U) (AU) (B1G) (B2G) (AU) (B3U)
                 (B2G) (B1G) (AU) (B2G)
       Virtual   (B1G) (B3U) (AU) (B3U) (B2G) (B1G) (B3U) (AU)
                 (B1G) (B3U) (B2G) (B1G) (B1U) (B3G) (B2G) (AG)
                 (B2U) (AG) (B2U) (B1U) (B3G) (AG) (AU) (B2U) (B1U)
                 (AG) (B3G) (AG) (B1U) (B2U) (B2U) (B2G) (AG) (AG)
                 (B1U) (B3G) (B2U) (B3U) (B1U) (AU) (B2G) (AG)
                 (B2U) (AU) (B3G) (B3G) (B1U) (AG) (B2U) (B1U)
                 (B3G) (B3U) (AG) (B3G) (B1U) (B1G) (AG) (B2U)
                 (B3U) (AG) (B2U) (B1U) (B2G) (B1G) (AG) (B1U)
                 (B2G) (B3G) (AG) (B3U) (B2U) (AU) (B3G) (B1U)
                 (B2U) (B3G) (B2U) (B1G) (AG) (B1U) (B3U) (B2U)
                 (AU) (B2G) (B1U) (B1U) (B3G) (B2G) (AG) (B3U)
                 (AG) (B1U) (B2U) (B3G) (B1G) (B2U) (AG) (AU) (B3G)
                 (AG) (B2U) (B1U) (B3U) (B1G) (B2U) (B2G) (AG)
                 (B1G) (B2U) (B2G) (B3U) (B3U) (B2U) (AG) (B3G)
                 (AG) (AU) (B2U) (B1U) (B3G) (B1U) (AG) (B1G) (AG)
                 (B2G) (B3G) (B1U) (AG) (B1U) (B3G) (B2U) (B1G)
                 (B3G) (B1U) (AG) (B3U) (B3G) (B2U) (AU) (B2U)
                 (B1U) (AG) (B3G) (B1U) (B2U) (B3U) (AG) (B1U)
                 (B2U) (B3G) (AU) (AG) (B2G) (B1U) (AG) (B3G) (B2U)
                 (B2G) (B3U) (B1U) (B1G) (AU) (B3G) (AG) (B2U)
                 (B1G) (B3U) (B1U) (B3G) (B1U) (B2G) (B3G) (AG)
                 (AU) (B2U) (B1U) (B3G) (AG) (B1U) (B2U) (B1U)
                 (B2G) (B1U) (B3G) (B3U) (B2U) (AG) (B3G) (B2U)
                 (B1G) (B3G) (AG) (B1U) (AG) (B2U) (B1G) (AG) (B1U)
                 (B2U) (AU) (B3G) (B3U) (B3G) (B1U) (B3U) (B3G)
                 (B2G) (B2U) (B1U) (AG) (B3G) (AG) (B1U) (B2U)
                 (B1G) (B2G) (B1U) (B3G) (B1U) (B2U) (B3G) (B1G)
                 (AG) (AG) (B3U) (B1U) (B3G) (AU) (B1U) (B3G) (AG)
                 (B2U) (B2U) (B1U) (AG) (B1U) (B3G) (B2U) (AG)
                 (B3G) (B1G) (B3U) (B1U) (B3G) (AU) (B1U) (B2U)
                 (B2G) (AG) (B3U) (B2U) (AU) (B3G) (B2G) (AG) (B2U)
                 (B1U) (AG) (B3G) (AG) (B2U) (AU) (B1U) (B1G) (AG)
                 (B2U) (B1G) (B3U) (B3G) (B1U) (AG) (B1U) (B2G)
                 (AG) (AG) (B1U) (B2U) (B2U) (B3G) (B2U) (B1G)
                 (B2U) (AU) (AG) (AG) (B2U) (B2G) (B3G) (B3U) (B3G)
                 (AG) (B1U) (B2U) (B1U) (B3G) (B2U) (AG) (B3G)
                 (B3U) (AG) (B1G) (AU) (B1U) (AG) (B1U) (B1G) (B2U)
                 (B3U) (B3G) (B2U) (B2G) (AG) (B2G) (B3G) (AU)
                 (B1U) (AG) (B2U) (B1U) (B1G) (B2U) (B1U) (B3G)
                 (B2U) (B3G) (AU) (B3U) (B2G) (B1U) (AU) (AG) (B1U)
                 (AG) (B3G) (B2U) (AG) (B2G) (B3G) (B3U) (AG) (B1G)
                 (B2U) (B1U) (AG) (B3U) (AU) (B3G) (B2G) (B2U)
                 (B1U) (B2G) (B1G) (AG) (B3U) (AG) (B3G) (AU) (B3U)
                 (B1G) (B2U) (AG) (B1U) (B3G) (B3U) (B2U) (B1U)
                 (B1G) (B2G) (B1G) (B2U) (AG) (B3G) (B1U) (B2U)
                 (AG) (B3G) (B2U) (B2G) (B1U) (AU) (AG) (B3G) (B1U)
                 (B3U) (AU) (B1G) (B2G) (B1U) (AG) (B2U) (B2U)
                 (B3G) (B3G) (B1U) (AG) (B3G) (B3U) (B1G) (B1U)
                 (B3G) (B2G) (AU) (B3U) (B2U) (AG) (B1U) (B3G)
                 (B3U) (B1U) (B3G) (AG) (B2U) (AG) (B1G) (B2U)
                 (AU) (B2G) (B1U) (B3G) (B3U) (B1U) (B2U) (B3G)
                 (B2G) (AG) (B1U) (B1U) (B1G) (AU) (B2U) (B2U)
                 (AG) (B3U) (AG) (B3G) (AU) (B2G) (B1G) (B3G) (B3U)
                 (B1U) (B2U) (AG) (AU) (B2G) (B1U) (B2U) (AG) (B3G)
                 (B3G) (B3U) (B1U) (B1G) (B2U) (AG) (AG) (B2U)
                 (B1U) (AG) (B2G) (AU) (B1U) (B3G) (AU) (B2G) (B2U)
                 (B3G) (AU) (AG) (B3U) (B1U) (B1G) (AG) (B2U) (B3G)
                 (B2G) (B2G) (B1U) (B3G) (AU) (B2U) (B1G) (AG)
                 (B1U) (B1G) (B1U) (B3U) (B2G) (AG) (B1G) (B3U)
                 (B2U) (B3G) (B2G) (AU) (AG) (B2U) (B3U) (B1U)
                 (AG) (B3G) (B1U) (B1U) (B3G) (AU) (B1G) (B3G)
                 (B2U) (B1U) (B3U) (B2U) (AG) (B3G) (B1G) (B2G)
                 (B3U) (AU) (B2G) (B1U) (B2G) (AU) (B1G) (B3U)
                 (B3G) (B2G) (AU) (B3U) (B2U) (AG) (B1U) (AU) (B2G)
                 (AG) (B2U) (B1G) (AG) (B3U) (B3G) (B1U) (B2G)
                 (B1G) (AU) (B3U) (AG) (B1U) (B2U) (B3G) (B2G)
                 (B2U) (B1G) (B3G) (AU) (AG) (B2U) (B1U) (B3U)
                 (AG) (B1G) (AG) (B2U) (B2G) (B3G) (B2U) (B2U)
                 (AG) (B3G) (B2U) (AU) (AG) (B1U) (B3G) (AG) (B1U)
                 (B2U) (B2U) (B3G) (B1U) (AG) (B2U) (B2G) (B3G)
                 (B1U) (AG) (AU) (B1U) (B2U) (B2G) (B1U) (B3G)
                 (AG) (B2U) (AG) (AU) (B3G) (B3G) (B2U) (AG) (B3G)
                 (B1U) (B1U) (B1U) (B1G) (B3G) (B3U) (AG) (AG)
                 (B2U) (B2U) (AG) (B1U) (B2U) (B2G) (B3G) (AU)
                 (B3U) (B1U) (B1G) (AG) (B2U) (B2G) (B3G) (B3U)
                 (B3U) (AU) (B1U) (AG) (B2U) (B2U) (B1G) (AG) (B3G)
                 (B1U) (AG) (B2U) (B1G) (B3G) (B1U) (B3U) (AG)
                 (B2U) (B3G) (B1G) (B3G) (B2U) (AG) (B1U) (B3U)
                 (B3G) (AG) (AG) (B2U) (B1U) (B1U) (B2U) (AG) (B2U)
                 (B3G) (B1G) (B3U) (B2G) (B1U) (B3G) (B2G) (B2U)
                 (AG) (B1U) (AU) (B1G) (B3U) (B3G) (B1G) (B2U)
                 (B1U) (B2G) (AG) (B3G) (B3U) (B3U) (AU) (B1G)
                 (B3U) (B2U) (AG) (AU) (B3G) (B2G) (AG) (B1U) (B1G)
                 (B3G) (B3U) (AG) (B1U) (B2G) (B2U) (B1U) (AU)
                 (B1G) (B3U) (B2U) (B2G) (AG) (AU) (B3G) (AG) (B1G)
                 (B3U) (B1U) (B2U) (B3G) (B1U) (B2U) (B3U) (B1U)
                 (AG) (B1G) (B2U) (B3G) (AG) (B1U) (B1G) (B3G)
                 (B2G) (AG) (B3U) (AU) (B2G) (AG) (B2U) (AU) (B1G)
                 (B1U) (B3G) (B2G) (B2U) (AG) (B1U) (AU) (B2U)
                 (AG) (B1U) (B3G) (B1G) (B2G) (B3G) (B3U) (B1U)
                 (B3U) (AG) (B2G) (B2U) (AU) (B1G) (B3G) (B1U)
                 (B3U) (AG) (B2U) (B3U) (B1U) (B3G) (B1G) (AG)
                 (AU) (B1U) (B1G) (B3G) (B3U) (B2U) (B2U) (B1U)
                 (B2G) (AG) (B3G) (B3U) (B1G) (B1U) (B2G) (B3U)
                 (B3G) (B1U) (B2U) (B3G) (B1G) (B1U) (B3G) (B3U)
                 (AG) (AU) (B2U) (AG) (AG) (B1U) (B2G) (B2G) (B1G)
                 (B3G) (B2U) (B3U) (AG) (B1G) (B3U) (B2U) (B1U)
                 (AU) (B2U) (AG) (AG) (AU) (B2G) (B1G) (B3G) (B2U)
                 (B3G) (B2U) (AG) (B3U) (AG) (AU) (B2G) (B1G) (B1U)
                 (B3G) (B3U) (B2U) (AU) (B2U) (B2G) (AU) (B1G)
                 (AG) (B1U) (B1U) (B2U) (B3G) (AG) (B3U) (B2G)
                 (B1U) (AU) (B1G) (B3U) (B2U) (B3G) (B2G) (AU)
                 (B3G) (B1U) (B1G) (B3U) (B1G) (AG) (B3G) (AU)
                 (B2U) (AG) (AU) (B1U) (AG) (B2G) (B1G) (B3G) (B1U)
                 (AG) (B2U) (B3U) (B2G) (B3U) (B2U) (B2U) (AG)
                 (B1U) (B3G) (B1G) (AG) (AU) (B1U) (B3G) (B2U)
                 (B1U) (B3G) (AG) (B2G) (B1U) (B3G) (AU) (B3G)
                 (B1U) (B2G) (B3U) (B1G) (AG) (AU) (B2U) (B3U)
                 (B2U) (B2G) (B3G) (AG) (B1U) (B3U) (AU) (B1G)
                 (B2U) (B1U) (B2G) (B3G) (AU) (B1G) (AG) (B1U)
                 (AG) (B2U) (AU) (B3U) (B2G) (AU) (B1G) (B1U) (B3G)
                 (B2G) (B3U) (B2U) (B1U) (AG) (B3G) (B3U) (B2G)
                 (B1G) (B3G) (B1U) (B2U) (AG) (B1G) (B2U) (B3G)
                 (B2G) (AU) (B1U) (B1G) (AG) (B2U) (AU) (B3G) (AG)
                 (B2G) (B2G) (B1U) (B2U) (AU) (B3G) (B1U) (AG)
                 (B3U) (AU) (B2U) (B2G) (B3G) (AG) (AG) (B2G) (AU)
                 (B3G) (B1U) (B2U) (B1U) (B3G) (B1U) (B3U) (AG)
                 (B3G) (B2U) (AU) (B3G) (B1U) (B1G) (B2U) (AG)
                 (B2G) (AU) (B2U) (AG) (B3G) (B1U) (B2G) (B3U)
                 (B2U) (AG) (B1U) (B2U) (B3G) (AG) (B1U) (B2U)
                 (B3G) (B1U) (AG) (B3G) (B1U) (AG) (B3G) (B2U)
                 (B2G) (B1U) (B1G) (AG) (AU) (B2U) (B1U) (B3G)
                 (B2U) (AG) (B1U) (B3U) (B3U) (B3G) (B2G) (B1G)
                 (B3G) (B1U) (AG) (B1G) (B3G) (B1U) (AU) (B3U)
                 (B2G) (B2U) (B2G) (B1G) (B1U) (B3U) (AU) (AG)
                 (AU) (AG) (B1G) (B2U) (B1U) (B3G) (B3U) (B3G)
                 (B2U) (B1U) (B1G) (B3G) (B2G) (B1G) (B2U) (B3U)
                 (AG) (AU) (B2G) (AG) (B2U) (B3G) (B3U) (AG) (B1U)
                 (AU) (B2G) (AG) (B2U) (B3G) (B2U) (B1U) (B3U)
                 (B1G) (B3G) (AG) (B2U) (B1U) (B1G) (B3U) (AU)
                 (B2U) (AG) (B1U) (AU) (AG) (B2G) (B3G) (B1U) (B2U)
                 (B1U) (AG) (AU) (B2G) (B2U) (AG) (B3G) (B1U) (B2G)
                 (B3G) (AU) (AG) (B1U) (B2G) (B1G) (B2U) (B3U)
                 (B3G) (B2U) (B1U) (B2G) (AU) (B3G) (AG) (B3G)
                 (B2U) (B2U) (AG) (B2U) (AG) (B1U) (B3G) (B1U)
                 (AU) (AG) (B3G) (B2G) (B2U) (B3G) (B1U) (B1U)
                 (AU) (B2G) (AG) (B1U) (B3G) (B1U) (B3G) (B2U)
                 (AG) (B3G) (AG) (B2U) (B2G) (B1U) (AU) (B3G) (AG)
                 (B2U) (AG) (B2U) (B1U) (AG) (B1U) (B3G) (B2U)
                 (B1U) (B3G) (B2U) (AG) (AG) (B1U) (B2U) (B3G)
                 (B1U) (AG) (B2U) (B3G) (B1U) (B2U) (B1U) (B3G)
                 (AG) (AG) (B1U) (B3G) (B2U) (AG) (B3G) (B3G) (B2U)
                 (B1U) (B2U) (B3G) (B1U) (AG) (B1U) (B3G) (B1U)
                 (B3G) (B3G) (AG) (B1U) (B1U) (B3G) (B1U) (B3G)
                 (B2U) (B3G) (B1U) (B1U) (B3G) (B1U) (B3G) (B1U)
                 (B3G) (AG) (B2U) (AG) (B1U) (B3G) (B2U) (AG) (B1U)
                 (B2U) (AG) (B2U) (AG) (B2U) (AG) (B3G) (B1U) (AG)
                 (B3G) (B2U) (B1U) (B1U) (AG) (B2U) (AG) (B3G)
                 (B1U) (B2U) (B2U) (B3G) (B1U) (AG) (B3G) (B1U)
                 (B3G) (B1U) (AG) (B3G) (B1U) (B3G) (B1U)
 Beta  Orbitals:
       Occupied  (AG) (B1U) (B2U) (AG) (B3G) (B1U) (B2U) (B3G)
                 (B1U) (AG) (B2U) (AG) (B3G) (B1U) (B2U) (AG) (B3G)
                 (B1U) (B3G) (B1U) (B2U) (AG) (B1U) (B3G) (B2U)
                 (AG) (B2U) (AG) (B3G) (B1U) (B2U) (AG) (B3G) (B1U)
                 (B1U) (AG) (B3G) (B2U) (B1U) (AG) (AG) (B2U) (AG)
                 (B2U) (B1U) (AG) (B2U) (AG) (B3G) (B1U) (AG) (B3G)
                 (B2U) (B1U) (AG) (B3G) (B1U) (B2U) (B1U) (B3G)
                 (B2U) (AG) (AG) (B3G) (B1U) (B2U) (B2U) (AG) (AG)
                 (B3G) (B2U) (B1U) (AG) (B1U) (B3G) (B2U) (AG)
                 (B2U) (AG) (B1U) (B2U) (AG) (B1U) (B3G) (B3G)
                 (B1U) (AG) (B2U) (B3U) (B2U) (B3G) (B3G) (AG)
                 (B1G) (B1U) (B3G) (B3U) (AG) (B1U) (B2U) (AG)
                 (B1U) (B1G) (B2U) (B2G) (B3G) (B3U) (B1U) (B2U)
                 (AG) (B3G) (B2U) (B1G) (B1U) (AG) (B2U) (AU) (B3U)
                 (B3G) (B2G) (AG) (B3U) (AU) (B1G) (B2G) (AU) (B3U)
                 (B2G) (B1G) (AU) (B2G)
       Virtual   (B1G) (B3U) (AU) (B3U) (B2G) (B1G) (B3U) (AU)
                 (B1G) (B3U) (B2G) (B1G) (B1U) (B3G) (B2G) (AG)
                 (B2U) (AG) (B2U) (B1U) (B3G) (AG) (AU) (B2U) (B1U)
                 (AG) (B3G) (AG) (B1U) (B2U) (B2U) (B2G) (AG) (AG)
                 (B1U) (B3G) (B2U) (B3U) (B1U) (AU) (B2G) (AG)
                 (B2U) (AU) (B3G) (B3G) (B1U) (AG) (B2U) (B1U)
                 (B3G) (B3U) (AG) (B3G) (B1U) (B1G) (AG) (B2U)
                 (B3U) (AG) (B2U) (B1U) (B2G) (B1G) (AG) (B1U)
                 (B2G) (B3G) (AG) (B3U) (B2U) (AU) (B3G) (B1U)
                 (B2U) (B3G) (B2U) (B1G) (AG) (B1U) (B3U) (B2U)
                 (AU) (B2G) (B1U) (B1U) (B3G) (B2G) (AG) (B3U)
                 (AG) (B1U) (B2U) (B3G) (B1G) (B2U) (AG) (AU) (B3G)
                 (AG) (B2U) (B1U) (B3U) (B1G) (B2U) (B2G) (AG)
                 (B1G) (B2U) (B2G) (B3U) (B3U) (B2U) (AG) (B3G)
                 (AG) (AU) (B2U) (B1U) (B3G) (B1U) (AG) (B1G) (AG)
                 (B2G) (B3G) (B1U) (AG) (B1U) (B3G) (B2U) (B1G)
                 (B3G) (B1U) (AG) (B3U) (B3G) (B2U) (AU) (B2U)
                 (B1U) (AG) (B3G) (B1U) (B2U) (B3U) (AG) (B1U)
                 (B2U) (B3G) (AU) (AG) (B2G) (B1U) (AG) (B3G) (B2U)
                 (B2G) (B3U) (B1U) (B1G) (AU) (B3G) (AG) (B2U)
                 (B1G) (B3U) (B1U) (B3G) (B1U) (B2G) (B3G) (AG)
                 (AU) (B2U) (B1U) (B3G) (AG) (B1U) (B2U) (B1U)
                 (B2G) (B1U) (B3G) (B3U) (B2U) (AG) (B3G) (B2U)
                 (B1G) (B3G) (AG) (B1U) (AG) (B2U) (B1G) (AG) (B1U)
                 (B2U) (AU) (B3G) (B3U) (B3G) (B1U) (B3U) (B3G)
                 (B2G) (B2U) (B1U) (AG) (B3G) (AG) (B1U) (B2U)
                 (B1G) (B2G) (B1U) (B3G) (B1U) (B2U) (B3G) (B1G)
                 (AG) (AG) (B3U) (B1U) (B3G) (AU) (B1U) (B3G) (AG)
                 (B2U) (B2U) (B1U) (AG) (B1U) (B3G) (B2U) (AG)
                 (B3G) (B1G) (B3U) (B1U) (B3G) (AU) (B1U) (B2U)
                 (B2G) (AG) (B3U) (B2U) (AU) (B3G) (B2G) (AG) (B2U)
                 (B1U) (AG) (B3G) (AG) (B2U) (AU) (B1U) (B1G) (AG)
                 (B2U) (B1G) (B3U) (B3G) (B1U) (AG) (B1U) (B2G)
                 (AG) (AG) (B1U) (B2U) (B2U) (B3G) (B2U) (B1G)
                 (B2U) (AU) (AG) (AG) (B2U) (B2G) (B3G) (B3U) (B3G)
                 (AG) (B1U) (B2U) (B1U) (B3G) (B2U) (AG) (B3G)
                 (B3U) (AG) (B1G) (AU) (B1U) (AG) (B1U) (B1G) (B2U)
                 (B3U) (B3G) (B2U) (B2G) (AG) (B2G) (B3G) (AU)
                 (B1U) (AG) (B2U) (B1U) (B1G) (B2U) (B1U) (B3G)
                 (B2U) (B3G) (AU) (B3U) (B2G) (B1U) (AU) (AG) (B1U)
                 (AG) (B3G) (B2U) (AG) (B2G) (B3G) (B3U) (AG) (B1G)
                 (B2U) (B1U) (AG) (B3U) (AU) (B3G) (B2G) (B2U)
                 (B1U) (B2G) (B1G) (AG) (B3U) (AG) (B3G) (AU) (B3U)
                 (B1G) (B2U) (AG) (B1U) (B3G) (B3U) (B2U) (B1U)
                 (B1G) (B2G) (B1G) (B2U) (AG) (B3G) (B1U) (B2U)
                 (AG) (B3G) (B2U) (B2G) (B1U) (AU) (AG) (B3G) (B1U)
                 (B3U) (AU) (B1G) (B2G) (B1U) (AG) (B2U) (B2U)
                 (B3G) (B3G) (B1U) (AG) (B3G) (B3U) (B1G) (B1U)
                 (B3G) (B2G) (AU) (B3U) (B2U) (AG) (B1U) (B3G)
                 (B3U) (B1U) (B3G) (AG) (B2U) (AG) (B1G) (B2U)
                 (AU) (B2G) (B1U) (B3G) (B3U) (B1U) (B2U) (B3G)
                 (B2G) (AG) (B1U) (B1U) (B1G) (AU) (B2U) (B2U)
                 (AG) (B3U) (AG) (B3G) (AU) (B2G) (B1G) (B3G) (B3U)
                 (B1U) (B2U) (AG) (AU) (B2G) (B1U) (B2U) (AG) (B3G)
                 (B3G) (B3U) (B1U) (B1G) (B2U) (AG) (AG) (B2U)
                 (B1U) (AG) (B2G) (AU) (B1U) (B3G) (AU) (B2G) (B2U)
                 (B3G) (AU) (AG) (B3U) (B1U) (B1G) (AG) (B2U) (B3G)
                 (B2G) (B2G) (B1U) (B3G) (AU) (B2U) (B1G) (AG)
                 (B1U) (B1G) (B1U) (B3U) (B2G) (AG) (B1G) (B3U)
                 (B2U) (B3G) (B2G) (AU) (AG) (B2U) (B3U) (B1U)
                 (AG) (B3G) (B1U) (B1U) (B3G) (AU) (B1G) (B3G)
                 (B2U) (B1U) (B3U) (B2U) (AG) (B3G) (B1G) (B2G)
                 (B3U) (AU) (B2G) (B1U) (B2G) (AU) (B1G) (B3U)
                 (B3G) (B2G) (AU) (B3U) (B2U) (AG) (B1U) (AU) (B2G)
                 (AG) (B2U) (B1G) (AG) (B3U) (B3G) (B1U) (B2G)
                 (B1G) (AU) (B3U) (AG) (B1U) (B2U) (B3G) (B2G)
                 (B2U) (B1G) (B3G) (AU) (AG) (B2U) (B1U) (B3U)
                 (AG) (B1G) (AG) (B2U) (B2G) (B3G) (B2U) (B2U)
                 (AG) (B3G) (B2U) (AU) (AG) (B1U) (B3G) (AG) (B1U)
                 (B2U) (B2U) (B3G) (B1U) (AG) (B2U) (B2G) (B3G)
                 (B1U) (AG) (AU) (B1U) (B2U) (B2G) (B1U) (B3G)
                 (AG) (B2U) (AG) (AU) (B3G) (B3G) (B2U) (AG) (B3G)
                 (B1U) (B1U) (B1U) (B1G) (B3G) (B3U) (AG) (AG)
                 (B2U) (B2U) (AG) (B1U) (B2U) (B2G) (B3G) (AU)
                 (B3U) (B1U) (B1G) (AG) (B2U) (B2G) (B3G) (B3U)
                 (B3U) (AU) (B1U) (AG) (B2U) (B2U) (B1G) (AG) (B3G)
                 (B1U) (AG) (B2U) (B1G) (B3G) (B1U) (B3U) (AG)
                 (B2U) (B3G) (B1G) (B3G) (B2U) (AG) (B1U) (B3U)
                 (B3G) (AG) (AG) (B2U) (B1U) (B1U) (B2U) (AG) (B2U)
                 (B3G) (B1G) (B3U) (B2G) (B1U) (B3G) (B2G) (B2U)
                 (AG) (B1U) (AU) (B1G) (B3U) (B3G) (B1G) (B2U)
                 (B1U) (B2G) (AG) (B3G) (B3U) (B3U) (AU) (B1G)
                 (B3U) (B2U) (AG) (AU) (B3G) (B2G) (AG) (B1U) (B1G)
                 (B3G) (B3U) (AG) (B1U) (B2G) (B2U) (B1U) (AU)
                 (B1G) (B3U) (B2U) (B2G) (AG) (AU) (B3G) (AG) (B1G)
                 (B3U) (B1U) (B2U) (B3G) (B1U) (B2U) (B3U) (B1U)
                 (AG) (B1G) (B2U) (B3G) (AG) (B1U) (B1G) (B3G)
                 (B2G) (AG) (B3U) (AU) (B2G) (AG) (B2U) (AU) (B1G)
                 (B1U) (B3G) (B2G) (B2U) (AG) (B1U) (AU) (B2U)
                 (AG) (B1U) (B3G) (B1G) (B2G) (B3G) (B3U) (B1U)
                 (B3U) (AG) (B2G) (B2U) (AU) (B1G) (B3G) (B1U)
                 (B3U) (AG) (B2U) (B3U) (B1U) (B3G) (B1G) (AG)
                 (AU) (B1U) (B1G) (B3G) (B3U) (B2U) (B2U) (B1U)
                 (B2G) (AG) (B3G) (B3U) (B1G) (B1U) (B2G) (B3U)
                 (B3G) (B1U) (B2U) (B3G) (B1G) (B1U) (B3G) (B3U)
                 (AG) (AU) (B2U) (AG) (AG) (B1U) (B2G) (B2G) (B1G)
                 (B3G) (B2U) (B3U) (AG) (B1G) (B3U) (B2U) (B1U)
                 (AU) (B2U) (AG) (AG) (AU) (B2G) (B1G) (B3G) (B2U)
                 (B3G) (B2U) (AG) (B3U) (AG) (AU) (B2G) (B1G) (B1U)
                 (B3G) (B3U) (B2U) (AU) (B2U) (B2G) (AU) (B1G)
                 (AG) (B1U) (B1U) (B2U) (B3G) (AG) (B3U) (B2G)
                 (B1U) (AU) (B1G) (B3U) (B2U) (B3G) (B2G) (AU)
                 (B3G) (B1U) (B1G) (B3U) (B1G) (AG) (B3G) (AU)
                 (B2U) (AG) (AU) (B1U) (AG) (B2G) (B1G) (B3G) (B1U)
                 (AG) (B2U) (B3U) (B2G) (B3U) (B2U) (B2U) (AG)
                 (B1U) (B3G) (B1G) (AG) (AU) (B1U) (B3G) (B2U)
                 (B1U) (B3G) (AG) (B2G) (B1U) (B3G) (AU) (B3G)
                 (B1U) (B2G) (B3U) (B1G) (AG) (AU) (B2U) (B3U)
                 (B2U) (B2G) (B3G) (AG) (B1U) (B3U) (AU) (B1G)
                 (B2U) (B1U) (B2G) (B3G) (AU) (B1G) (AG) (B1U)
                 (AG) (B2U) (AU) (B3U) (B2G) (AU) (B1G) (B1U) (B3G)
[...]
  Beta virt. eigenvalues --    3.32204   3.32438   3.32608   3.32732   3.33009
  Beta virt. eigenvalues --    3.33150   3.34242   3.34311   3.34977   3.35214
  Beta virt. eigenvalues --    3.35372   3.35861   3.35870   3.35973   3.35991
  Beta virt. eigenvalues --    3.36888   3.37251   3.38106   3.38113   3.38745
  Beta virt. eigenvalues --    3.39272   3.39561   3.40084   3.40350   3.40546
  Beta virt. eigenvalues --    3.40717   3.41177   3.42462   3.42601   3.42847
  Beta virt. eigenvalues --    3.43284   3.43344   3.43691   3.44823   3.44962
  Beta virt. eigenvalues --    3.45087   3.45111   3.45271   3.45445   3.45950
  Beta virt. eigenvalues --    3.46308   3.47413   3.47500   3.47582   3.48271
  Beta virt. eigenvalues --    3.48694   3.48895   3.49450   3.49480   3.49632
  Beta virt. eigenvalues --    3.49720   3.50171   3.50772   3.50853   3.50944
  Beta virt. eigenvalues --    3.51052   3.51158   3.51494   3.51667   3.51803
  Beta virt. eigenvalues --    3.51998   3.52650   3.53294   3.54147   3.55040
  Beta virt. eigenvalues --    3.55814   3.55986   3.56041   3.57034   3.57063
  Beta virt. eigenvalues --    3.57162   3.58051   3.58254   3.58370   3.59438
  Beta virt. eigenvalues --    3.59866   3.60397   3.60454   3.60706   3.60956
  Beta virt. eigenvalues --    3.61607   3.61714   3.61805   3.62701   3.62879
  Beta virt. eigenvalues --    3.63109   3.63308   3.63741   3.64191   3.64460
  Beta virt. eigenvalues --    3.65124   3.65151   3.66084   3.66100   3.66270
  Beta virt. eigenvalues --    3.66426   3.67295   3.67465   3.69030   3.69184
  Beta virt. eigenvalues --    3.70479   3.71387   3.72652   3.72877   3.72929
  Beta virt. eigenvalues --    3.73445   3.74060   3.76140   3.76310   3.78830
  Beta virt. eigenvalues --    3.79102   3.79201   3.79819   3.79857   3.80112
  Beta virt. eigenvalues --    3.81092   3.81268   3.83163   3.83544   3.83885
  Beta virt. eigenvalues --    3.83941   3.84116   3.86141   3.87584   3.88150
  Beta virt. eigenvalues --    3.88462   3.88789   3.88916   3.89468   3.90612
  Beta virt. eigenvalues --    3.91225   3.91265   3.91480   3.91598   3.92906
  Beta virt. eigenvalues --    3.93418   3.93853   3.94318   3.94567   3.95354
  Beta virt. eigenvalues --    3.95952   3.96453   3.98002   3.98372   3.98587
  Beta virt. eigenvalues --    3.98691   3.99038   4.00853   4.01397   4.02877
  Beta virt. eigenvalues --    4.03428   4.03986   4.04402   4.04716   4.05019
  Beta virt. eigenvalues --    4.05639   4.06047   4.06137   4.06950   4.07628
  Beta virt. eigenvalues --    4.08006   4.08206   4.08916   4.09130   4.10170
  Beta virt. eigenvalues --    4.10241   4.12109   4.12173   4.12210   4.13325
  Beta virt. eigenvalues --    4.14539   4.15110   4.15391   4.15418   4.15870
  Beta virt. eigenvalues --    4.16027   4.16609   4.16985   4.18132   4.18344
  Beta virt. eigenvalues --    4.18588   4.18717   4.19479   4.19832   4.20274
  Beta virt. eigenvalues --    4.20781   4.20871   4.21491   4.21517   4.23081
  Beta virt. eigenvalues --    4.24494   4.24863   4.24890   4.25190   4.25383
  Beta virt. eigenvalues --    4.25495   4.25706   4.27077   4.27569   4.27791
  Beta virt. eigenvalues --    4.28602   4.29133   4.29235   4.30280   4.30704
  Beta virt. eigenvalues --    4.31190   4.32251   4.32289   4.32789   4.33219
  Beta virt. eigenvalues --    4.33351   4.33821   4.33916   4.33988   4.34394
  Beta virt. eigenvalues --    4.35432   4.37085   4.37373   4.37583   4.38496
  Beta virt. eigenvalues --    4.38640   4.39614   4.40317   4.40807   4.41635
  Beta virt. eigenvalues --    4.41830   4.41945   4.43367   4.44777   4.46209
  Beta virt. eigenvalues --    4.46774   4.47158   4.47495   4.48866   4.50001
  Beta virt. eigenvalues --    4.50299   4.51453   4.52196   4.54575   4.55537
  Beta virt. eigenvalues --    4.55784   4.57166   4.57453   4.57677   4.58126
  Beta virt. eigenvalues --    4.62157   4.62378   4.62500   4.63079   4.63137
  Beta virt. eigenvalues --    4.64134   4.64422   4.65047   4.65264   4.66962
  Beta virt. eigenvalues --    4.67250   4.68325   4.69614   4.69965   4.70812
  Beta virt. eigenvalues --    4.71490   4.71978   4.75640   4.75680   4.75725
  Beta virt. eigenvalues --    4.76262   4.77954   4.79233   4.79494   4.79821
  Beta virt. eigenvalues --    4.80262   4.80697   4.82205   4.82452   4.86339
  Beta virt. eigenvalues --    4.86782   4.86886   4.87795   4.88901   4.89226
  Beta virt. eigenvalues --    4.90764   4.92910   4.93603   4.95191   4.97335
  Beta virt. eigenvalues --    4.98501   4.98722   4.98743   4.99085   5.00387
  Beta virt. eigenvalues --    5.01540   5.02294   5.06490   5.07435   5.09061
  Beta virt. eigenvalues --    5.09127   5.09217   5.11405   5.13635   5.13733
  Beta virt. eigenvalues --    5.14425   5.16165   5.16493   5.17349   5.18493
  Beta virt. eigenvalues --    5.19932   5.20800   5.21559   5.22671   5.23322
  Beta virt. eigenvalues --    5.23406   5.28215   5.29093   5.32205   5.33732
  Beta virt. eigenvalues --    5.34202   5.34382   5.40517   5.40599   5.41300
  Beta virt. eigenvalues --    5.41961   5.45346   5.45677   5.49667   5.49985
  Beta virt. eigenvalues --    5.50039   5.53822   5.53885   5.53921   5.54560
  Beta virt. eigenvalues --    5.57647   5.63922   5.66445   5.66980   5.69838
  Beta virt. eigenvalues --    5.71507   5.71868   5.73074   5.73370   5.77189
  Beta virt. eigenvalues --    5.77967   5.84097   5.84943   5.91477   5.93763
  Beta virt. eigenvalues --    5.98304   6.07744   6.10121   6.23683   6.52611
  Beta virt. eigenvalues --   21.59895  22.09729  22.26249  22.42662  22.42774
  Beta virt. eigenvalues --   22.44150  22.44295  22.48245  22.49858  22.52742
  Beta virt. eigenvalues --   22.54836  22.57964  22.58071  22.60990  22.62109
  Beta virt. eigenvalues --   22.67758  22.68471  22.69319  22.69473  22.69729
  Beta virt. eigenvalues --   22.72730  22.73148  22.73370  22.78313  22.78434
  Beta virt. eigenvalues --   22.87489  22.93864  22.94895  22.96284  22.98479
  Beta virt. eigenvalues --   22.99988  23.08382  23.16093  23.17772  23.27402
  Beta virt. eigenvalues --   23.27582  23.47092  23.59416  23.74846  24.14940
          Condensed to atoms (all electrons):
          Atomic-Atomic Spin Densities.
 Mulliken charges and spin densities:
               1          2
     1  C   -0.136890   0.000000
     2  C   -0.184989   0.000000
     3  C    0.112404  -0.000000
     4  C   -0.018364  -0.000000
     5  C    0.112404  -0.000000
     6  C   -0.184989   0.000000
     7  C    0.176131   0.000000
     8  C   -0.018364  -0.000000
     9  C    0.112404  -0.000000
    10  C    0.176131   0.000000
    11  C   -0.184989   0.000000
    12  H    0.081759  -0.000000
    13  C   -0.136890   0.000000
    14  C   -0.184989   0.000000
    15  C    0.112404  -0.000000
    16  C    0.176131   0.000000
    17  C    0.176131   0.000000
    18  H    0.103278  -0.000000
    19  H    0.081759  -0.000000
    20  H    0.081759  -0.000000
    21  H    0.103278  -0.000000
    22  H    0.081759  -0.000000
    23  C   -0.353678  -0.000000
    24  C    0.268161   0.000000
    25  C    0.268161   0.000000
    26  C   -0.353678  -0.000000
    27  H    0.078377  -0.000000
    28  H    0.078377  -0.000000
    29  C   -0.357100  -0.000000
    30  C    0.233364  -0.000000
    31  C    0.233364  -0.000000
    32  C   -0.357100  -0.000000
    33  H    0.089196  -0.000000
    34  H    0.089196  -0.000000
    35  C    0.268161   0.000000
    36  C   -0.353678  -0.000000
    37  C   -0.353678  -0.000000
    38  C    0.268161   0.000000
    39  H    0.078377  -0.000000
    40  H    0.078377  -0.000000
    41  C    0.233364  -0.000000
    42  C   -0.357100  -0.000000
    43  C   -0.357100  -0.000000
    44  C    0.233364  -0.000000
    45  H    0.089196  -0.000000
    46  H    0.089196  -0.000000
    47  C   -0.237446   0.000000
    48  C   -0.087135  -0.000000
    49  C   -0.087135  -0.000000
    50  C   -0.237446   0.000000
    51  H    0.099350   0.000000
    52  H    0.107594   0.000000
    53  H    0.107594   0.000000
    54  H    0.099350   0.000000
    55  C   -0.237446   0.000000
    56  C   -0.237446   0.000000
    57  C   -0.087135  -0.000000
    58  C   -0.087135  -0.000000
    59  H    0.099350   0.000000
    60  H    0.099350   0.000000
    61  H    0.107594   0.000000
    62  H    0.107594   0.000000
 Sum of Mulliken charges =  -0.00000  -0.00000
 Mulliken charges and spin densities with hydrogens summed into heavy atoms:
               1          2
     1  C   -0.033612   0.000000
     2  C   -0.103230  -0.000000
     3  C    0.112404  -0.000000
     4  C   -0.018364  -0.000000
     5  C    0.112404  -0.000000
     6  C   -0.103230  -0.000000
     7  C    0.176131   0.000000
     8  C   -0.018364  -0.000000
     9  C    0.112404  -0.000000
    10  C    0.176131   0.000000
    11  C   -0.103230  -0.000000
    13  C   -0.033612   0.000000
    14  C   -0.103230  -0.000000
    15  C    0.112404  -0.000000
    16  C    0.176131   0.000000
    17  C    0.176131   0.000000
    23  C   -0.275302  -0.000000
    24  C    0.268161   0.000000
    25  C    0.268161   0.000000
    26  C   -0.275302  -0.000000
    29  C   -0.267903  -0.000000
    30  C    0.233364  -0.000000
    31  C    0.233364  -0.000000
    32  C   -0.267903  -0.000000
    35  C    0.268161   0.000000
    36  C   -0.275302  -0.000000
    37  C   -0.275302  -0.000000
    38  C    0.268161   0.000000
    41  C    0.233364  -0.000000
    42  C   -0.267903  -0.000000
    43  C   -0.267903  -0.000000
    44  C    0.233364  -0.000000
    47  C   -0.138095   0.000000
    48  C    0.020459  -0.000000
    49  C    0.020459  -0.000000
    50  C   -0.138095   0.000000
    55  C   -0.138095   0.000000
    56  C   -0.138095   0.000000
    57  C    0.020459  -0.000000
    58  C    0.020459  -0.000000
 Electronic spatial extent (au):  <R**2>=          33561.2768
 Charge=             -0.0000 electrons
 Dipole moment (field-independent basis, Debye):
    X=             -0.0000    Y=             -0.0000    Z=             -0.0000  Tot=              0.0000
 Quadrupole moment (field-independent basis, Debye-Ang):
   XX=           -241.9795   YY=           -194.3729   ZZ=           -197.1826
   XY=              0.0000   XZ=              0.0000   YZ=              0.0000
 Traceless Quadrupole moment (field-independent basis, Debye-Ang):
   XX=            -30.8011   YY=             16.8054   ZZ=             13.9957
   XY=              0.0000   XZ=              0.0000   YZ=              0.0000
 Octapole moment (field-independent basis, Debye-Ang**2):
  XXX=              0.0000  YYY=              0.0000  ZZZ=              0.0000  XYY=              0.0000
  XXY=             -0.0000  XXZ=              0.0000  XZZ=              0.0000  YZZ=              0.0000
  YYZ=              0.0000  XYZ=             -0.0000
 Hexadecapole moment (field-independent basis, Debye-Ang**3):
 XXXX=           -277.2223 YYYY=         -38314.9958 ZZZZ=          -3610.7709 XXXY=             -0.0000
 XXXZ=              0.0000 YYYX=             -0.0000 YYYZ=             -0.0000 ZZZX=              0.0000
 ZZZY=             -0.0000 XXYY=          -8008.4303 XXZZ=           -793.8129 YYZZ=          -7101.3095
 XXYZ=             -0.0000 YYXZ=              0.0000 ZZXY=             -0.0000
 N-N= 3.714207818611D+03 E-N=-1.099485931584D+04  KE= 1.528697534519D+03
 Symmetry AG   KE= 4.113869939683D+02
 Symmetry B1G  KE= 1.058518597425D+01
 Symmetry B2G  KE= 1.136234434812D+01
 Symmetry B3G  KE= 3.329557994181D+02
 Symmetry AU   KE= 9.306101714989D+00
 Symmetry B1U  KE= 3.985944875749D+02
 Symmetry B2U  KE= 3.421787509755D+02
 Symmetry B3U  KE= 1.232787054492D+01
 Symmetry AG   SP= 4.659003736089D-14
 Symmetry B1G  SP=-7.187655868611D-15
 Symmetry B2G  SP=-2.050567915102D-14
 Symmetry B3G  SP=-3.377247101893D-14
 Symmetry AU   SP=-3.723930827677D-15
 Symmetry B1U  SP= 9.382979157010D-15
 Symmetry B2U  SP=-1.721424859673D-14
 Symmetry B3U  SP=-1.426378647682D-14
 Leave Link  601 at Tue Jan 21 01:19:18 2020, MaxMem=  6710886400 cpu:             267.3 elap:              17.0
 (Enter /opt/ohpc/pub/libs/gaussian/g16-A.03/sandybridge/g16/l9999.exe)
 Electronic transition elements 
                 1             2             3             4             5 
      1  -0.153658D+04 -0.153658D+04 -0.153654D+04 -0.153653D+04 -0.153653D+04
      2   0.000000D+00  0.000000D+00  0.000000D+00  0.000000D+00  0.000000D+00
      3   0.000000D+00  0.000000D+00  0.000000D+00  0.000000D+00  0.000000D+00
      4   0.000000D+00  0.000000D+00  0.000000D+00  0.000000D+00  0.891249D+00
      5   0.000000D+00  0.000000D+00  0.000000D+00  0.000000D+00  0.000000D+00
      6   0.000000D+00  0.000000D+00  0.000000D+00  0.000000D+00  0.000000D+00
      7   0.000000D+00  0.000000D+00  0.000000D+00  0.000000D+00 -0.993388D-01
      8   0.000000D+00  0.000000D+00  0.000000D+00  0.000000D+00  0.000000D+00
      9   0.000000D+00  0.000000D+00  0.000000D+00  0.000000D+00  0.000000D+00
     10   0.000000D+00  0.000000D+00  0.000000D+00  0.000000D+00  0.000000D+00
     11   0.000000D+00  0.000000D+00  0.000000D+00  0.000000D+00  0.000000D+00
     12   0.000000D+00  0.000000D+00  0.000000D+00  0.000000D+00  0.000000D+00
     13   0.000000D+00  0.000000D+00  0.000000D+00  0.000000D+00  0.000000D+00
     14   0.000000D+00  0.000000D+00  0.000000D+00  0.000000D+00  0.000000D+00
     15   0.000000D+00  0.000000D+00  0.000000D+00  0.000000D+00  0.000000D+00
     16   0.000000D+00  0.000000D+00  0.000000D+00  0.000000D+00  0.000000D+00
                 6             7             8             9            10 
      1  -0.153653D+04 -0.153653D+04 -0.153652D+04 -0.153652D+04 -0.153651D+04
      2   0.000000D+00  0.000000D+00  0.000000D+00  0.000000D+00  0.000000D+00
      3   0.000000D+00  0.000000D+00  0.000000D+00  0.000000D+00  0.000000D+00
      4   0.000000D+00  0.000000D+00  0.000000D+00  0.000000D+00  0.000000D+00
      5   0.000000D+00  0.000000D+00  0.000000D+00  0.000000D+00  0.000000D+00
      6   0.000000D+00  0.000000D+00  0.000000D+00  0.000000D+00  0.000000D+00
      7   0.000000D+00  0.000000D+00  0.000000D+00  0.000000D+00  0.000000D+00
      8  -0.111910D+01  0.000000D+00  0.000000D+00  0.000000D+00  0.000000D+00
      9   0.000000D+00  0.000000D+00  0.000000D+00  0.000000D+00  0.000000D+00
     10   0.000000D+00  0.000000D+00  0.000000D+00  0.000000D+00  0.000000D+00
     11   0.000000D+00  0.000000D+00  0.000000D+00  0.000000D+00  0.000000D+00
     12   0.000000D+00  0.000000D+00  0.000000D+00  0.000000D+00  0.000000D+00
     13   0.000000D+00  0.000000D+00  0.000000D+00  0.000000D+00  0.000000D+00
     14   0.000000D+00  0.000000D+00  0.000000D+00  0.000000D+00  0.000000D+00
     15   0.000000D+00  0.000000D+00  0.000000D+00  0.000000D+00  0.000000D+00
     16  -0.141570D+01  0.000000D+00  0.000000D+00  0.000000D+00  0.000000D+00
                11            12            13            14            15 
      1  -0.153651D+04 -0.153651D+04 -0.153651D+04 -0.153651D+04 -0.153650D+04
      2   0.000000D+00  0.000000D+00  0.000000D+00  0.000000D+00  0.000000D+00
      3   0.000000D+00 -0.440042D+00  0.000000D+00  0.000000D+00  0.000000D+00
      4   0.000000D+00  0.000000D+00  0.000000D+00  0.000000D+00  0.000000D+00
      5   0.000000D+00  0.000000D+00  0.000000D+00  0.000000D+00  0.000000D+00
      6   0.000000D+00  0.527299D-01  0.000000D+00  0.000000D+00  0.000000D+00
      7   0.000000D+00  0.000000D+00  0.000000D+00  0.000000D+00  0.000000D+00
      8   0.000000D+00  0.000000D+00  0.000000D+00  0.000000D+00  0.000000D+00
      9   0.000000D+00  0.000000D+00  0.000000D+00  0.000000D+00  0.000000D+00
     10   0.000000D+00  0.000000D+00  0.000000D+00  0.000000D+00  0.000000D+00
     11   0.000000D+00  0.000000D+00  0.000000D+00  0.484236D-02  0.000000D+00
     12   0.000000D+00  0.000000D+00  0.000000D+00 -0.139871D+01  0.000000D+00
     13   0.000000D+00  0.000000D+00  0.000000D+00  0.244966D+00  0.000000D+00
     14   0.000000D+00  0.000000D+00  0.000000D+00  0.000000D+00  0.000000D+00
     15   0.000000D+00  0.000000D+00  0.000000D+00  0.000000D+00  0.000000D+00
     16   0.000000D+00  0.000000D+00  0.000000D+00  0.000000D+00  0.000000D+00
                16            17            18            19            20 
      1  -0.153650D+04 -0.153650D+04 -0.153650D+04 -0.153650D+04 -0.153649D+04
      2   0.000000D+00  0.000000D+00  0.000000D+00  0.000000D+00  0.000000D+00
      3   0.000000D+00  0.000000D+00  0.000000D+00  0.000000D+00  0.000000D+00
      4   0.000000D+00  0.000000D+00  0.000000D+00 -0.494719D+00  0.000000D+00
      5   0.000000D+00  0.000000D+00  0.000000D+00  0.000000D+00  0.000000D+00
      6   0.000000D+00  0.000000D+00  0.000000D+00  0.000000D+00  0.000000D+00
      7   0.000000D+00  0.000000D+00  0.000000D+00  0.707771D-01  0.000000D+00
      8   0.446988D+00  0.000000D+00  0.000000D+00  0.000000D+00  0.000000D+00
      9   0.000000D+00  0.000000D+00  0.000000D+00  0.000000D+00  0.000000D+00
     10   0.000000D+00  0.000000D+00  0.000000D+00  0.000000D+00  0.000000D+00
     11   0.000000D+00  0.000000D+00  0.000000D+00  0.000000D+00  0.000000D+00
     12   0.000000D+00  0.000000D+00  0.000000D+00  0.000000D+00  0.000000D+00
     13   0.000000D+00  0.000000D+00  0.000000D+00  0.000000D+00  0.000000D+00
     14   0.000000D+00  0.000000D+00  0.000000D+00  0.000000D+00  0.000000D+00
     15   0.000000D+00  0.000000D+00  0.000000D+00  0.000000D+00  0.000000D+00
     16   0.273793D+00  0.000000D+00  0.000000D+00  0.000000D+00  0.000000D+00

 Test job not archived.
 1\1\GINC-CNODE102\SP\ULC-wHPBE TD-FC\def2TZVP\C40H22\QAI222\21-Jan-202
 0\0\\#P uLC-wHPBE/def2tzvp iop(3/107=0180000000, 3/108=0180000000) td(
 NStates=20)\\H22 C40\\0,1\C,0,0.,0.,3.536321\C,0,0.,1.198833,2.842572\
 C,0,0.,1.227405,1.443698\C,0,0.,0.,0.729898\C,0,0.,-1.227405,1.443698\
 C,0,0.,-1.198833,2.842572\C,0,0.,2.511121,0.719817\C,0,0.,0.,-0.729898
 \C,0,0.,1.227405,-1.443698\C,0,0.,2.511121,-0.719817\C,0,0.,1.198833,-
 2.842572\H,0,0.,2.125364,-3.411251\C,0,0.,0.,-3.536321\C,0,0.,-1.19883
 3,-2.842572\C,0,0.,-1.227405,-1.443698\C,0,0.,-2.511121,-0.719817\C,0,
 0.,-2.511121,0.719817\H,0,0.,0.,4.62649\H,0,0.,2.125364,3.411251\H,0,0
 .,-2.125364,3.411251\H,0,0.,0.,-4.62649\H,0,0.,-2.125364,-3.411251\C,0
 ,0.,3.720259,1.386637\C,0,0.,4.968122,0.716833\C,0,0.,4.968122,-0.7168
 33\C,0,0.,3.720259,-1.386637\H,0,0.,3.75244,2.474612\H,0,0.,3.75244,-2
 .474612\C,0,0.,6.191612,1.402388\C,0,0.,7.409298,0.720717\C,0,0.,7.409
 298,-0.720717\C,0,0.,6.191612,-1.402388\H,0,0.,6.191159,2.494732\H,0,0
 .,6.191159,-2.494732\C,0,0.,-4.968122,0.716833\C,0,0.,-3.720259,1.3866
 37\C,0,0.,-3.720259,-1.386637\C,0,0.,-4.968122,-0.716833\H,0,0.,-3.752
 44,2.474612\H,0,0.,-3.75244,-2.474612\C,0,0.,-7.409298,0.720717\C,0,0.
 ,-6.191612,1.402388\C,0,0.,-6.191612,-1.402388\C,0,0.,-7.409298,-0.720
 717\H,0,0.,-6.191159,2.494732\H,0,0.,-6.191159,-2.494732\C,0,0.,8.6660
 21,1.405089\C,0,0.,9.843169,0.712816\C,0,0.,9.843169,-0.712816\C,0,0.,
 8.666021,-1.405089\H,0,0.,8.663579,2.496417\H,0,0.,10.792959,1.248351\
 H,0,0.,10.792959,-1.248351\H,0,0.,8.663579,-2.496417\C,0,0.,-8.666021,
 1.405089\C,0,0.,-8.666021,-1.405089\C,0,0.,-9.843169,-0.712816\C,0,0.,
 -9.843169,0.712816\H,0,0.,-8.663579,2.496417\H,0,0.,-8.663579,-2.49641
 7\H,0,0.,-10.792959,-1.248351\H,0,0.,-10.792959,1.248351\\Version=EM64
 L-G16RevA.03\State=1-AG\HF=-1536.636052\S2=0.\S2-1=0.\S2A=0.\RMSD=6.49
 5e-09\PG=D02H [C2"(H1C1C1.C1C1H1),SG(C36H20)]\\@


 KEEP CLOSE TO NATURES HEART, YOURSELF;
 AND BREAK CLEAR AWAY, ONCE IN A WHILE, AND
 CLIMB A MOUNTAIN OR SPEND A WEEK IN THE
 WOODS.  WASH YOUR SPIRIT CLEAN...
                                         -- JOHN MUIR
 Job cpu time:       1 days 13 hours 41 minutes 44.1 seconds.
 Elapsed time:       0 days  2 hours 21 minutes 41.1 seconds.
 File lengths (MBytes):  RWF=  20176 Int=      0 D2E=      0 Chk=   1616 Scr=     32
 Normal termination of Gaussian 16 at Tue Jan 21 01:19:20 2020.
