 Entering Gaussian System, Link 0=g16
 Input=4p4.gjf
 Output=4p4.log
 Initial command:
 /opt/ohpc/pub/libs/gaussian/g16-A.03/sandybridge/g16/l1.exe "/scratch/qai222/pamol/pamol_fmt/us1/4p4/Gau-44156.inp" -scrdir="/scratch/qai222/pamol/pamol_fmt/us1/4p4/"
 Entering Link 1 = /opt/ohpc/pub/libs/gaussian/g16-A.03/sandybridge/g16/l1.exe PID=     44157.
  
 Copyright (c) 1988,1990,1992,1993,1995,1998,2003,2009,2016,
            Gaussian, Inc.  All Rights Reserved.
  
 This is part of the Gaussian(R) 16 program.  It is based on
 the Gaussian(R) 09 system (copyright 2009, Gaussian, Inc.),
 the Gaussian(R) 03 system (copyright 2003, Gaussian, Inc.),
 the Gaussian(R) 98 system (copyright 1998, Gaussian, Inc.),
 the Gaussian(R) 94 system (copyright 1995, Gaussian, Inc.),
 the Gaussian 92(TM) system (copyright 1992, Gaussian, Inc.),
 the Gaussian 90(TM) system (copyright 1990, Gaussian, Inc.),
 the Gaussian 88(TM) system (copyright 1988, Gaussian, Inc.),
 the Gaussian 86(TM) system (copyright 1986, Carnegie Mellon
 University), and the Gaussian 82(TM) system (copyright 1983,
 Carnegie Mellon University). Gaussian is a federally registered
 trademark of Gaussian, Inc.
  
 This software contains proprietary and confidential information,
 including trade secrets, belonging to Gaussian, Inc.
  
 This software is provided under written license and may be
 used, copied, transmitted, or stored only in accord with that
 written license.
  
 The following legend is applicable only to US Government
 contracts under FAR:
  
                    RESTRICTED RIGHTS LEGEND
  
 Use, reproduction and disclosure by the US Government is
 subject to restrictions as set forth in subparagraphs (a)
 and (c) of the Commercial Computer Software - Restricted
 Rights clause in FAR 52.227-19.
  
 Gaussian, Inc.
 340 Quinnipiac St., Bldg. 40, Wallingford CT 06492
  
  
 ---------------------------------------------------------------
 Warning -- This program may not be used in any manner that
 competes with the business of Gaussian, Inc. or will provide
 assistance to any competitor of Gaussian, Inc.  The licensee
 of this program is prohibited from giving any competitor of
 Gaussian, Inc. access to this program.  By using this program,
 the user acknowledges that Gaussian, Inc. is engaged in the
 business of creating and licensing software in the field of
 computational chemistry and represents and warrants to the
 licensee that it is not a competitor of Gaussian, Inc. and that
 it will not use this program in any manner prohibited above.
 ---------------------------------------------------------------
  

 Cite this work as:
 Gaussian 16, Revision A.03,
 M. J. Frisch, G. W. Trucks, H. B. Schlegel, G. E. Scuseria, 
 M. A. Robb, J. R. Cheeseman, G. Scalmani, V. Barone, 
 G. A. Petersson, H. Nakatsuji, X. Li, M. Caricato, A. V. Marenich, 
 J. Bloino, B. G. Janesko, R. Gomperts, B. Mennucci, H. P. Hratchian, 
 J. V. Ortiz, A. F. Izmaylov, J. L. Sonnenberg, D. Williams-Young, 
 F. Ding, F. Lipparini, F. Egidi, J. Goings, B. Peng, A. Petrone, 
 T. Henderson, D. Ranasinghe, V. G. Zakrzewski, J. Gao, N. Rega, 
 G. Zheng, W. Liang, M. Hada, M. Ehara, K. Toyota, R. Fukuda, 
 J. Hasegawa, M. Ishida, T. Nakajima, Y. Honda, O. Kitao, H. Nakai, 
 T. Vreven, K. Throssell, J. A. Montgomery, Jr., J. E. Peralta, 
 F. Ogliaro, M. J. Bearpark, J. J. Heyd, E. N. Brothers, K. N. Kudin, 
 V. N. Staroverov, T. A. Keith, R. Kobayashi, J. Normand, 
 K. Raghavachari, A. P. Rendell, J. C. Burant, S. S. Iyengar, 
 J. Tomasi, M. Cossi, J. M. Millam, M. Klene, C. Adamo, R. Cammi, 
 J. W. Ochterski, R. L. Martin, K. Morokuma, O. Farkas, 
 J. B. Foresman, and D. J. Fox, Gaussian, Inc., Wallingford CT, 2016.
 
 ******************************************
 Gaussian 16:  EM64L-G16RevA.03 25-Dec-2016
                 3-Feb-2020 
 ******************************************
 %mem=50GB
 %nproc=16
 Will use up to   16 processors via shared memory.
 ----------------------------------------------------------------------
 #P uLC-wHPBE/def2tzvp iop(3/107=0178000000, 3/108=0178000000) td(nstat
 es=20)
 ----------------------------------------------------------------------
 1/38=1,172=1/1;
 2/12=2,17=6,18=5,40=1/2;
 3/5=44,7=101,11=2,25=1,30=1,74=-71,107=178000000,108=178000000,116=2/1,2,3,8;
 4//1;
 5/5=2,38=5/2;
 8/6=1,10=1,108=20/1;
 9/41=20,42=1,70=2/14;
 6/7=2,8=2,9=2,10=2/1;
 99/5=1,9=1/99;
 Leave Link    1 at Mon Feb  3 17:08:03 2020, MaxMem=  6710886400 cpu:              10.0 elap:               0.7
 (Enter /opt/ohpc/pub/libs/gaussian/g16-A.03/sandybridge/g16/l101.exe)
 -------
 H26 C48
 -------
 Symbolic Z-matrix:
 Charge =  0 Multiplicity = 1
 C                     0.        0.        3.53793 
 C                     0.        1.19866   2.84387 
 C                     0.        1.22723   1.44474 
 C                     0.        0.        0.73072 
 C                     0.       -1.22723   1.44474 
 C                     0.       -1.19866   2.84387 
 C                     0.        2.51231   0.72223 
 C                     0.        0.       -0.73072 
 C                     0.        1.22723  -1.44474 
 C                     0.        2.51231  -0.72223 
 C                     0.        1.19866  -2.84387 
 H                     0.        2.12532  -3.41244 
 C                     0.        0.       -3.53793 
 C                     0.       -1.19866  -2.84387 
 C                     0.       -1.22723  -1.44474 
 C                     0.       -2.51231  -0.72223 
 C                     0.       -2.51231   0.72223 
 H                     0.        0.        4.62814 
 H                     0.        2.12532   3.41244 
 H                     0.       -2.12532   3.41244 
 H                     0.        0.       -4.62814 
 H                     0.       -2.12532  -3.41244 
 C                     0.        3.71819   1.38845 
 C                     0.        4.97168   0.71977 
 C                     0.        4.97168  -0.71977 
 C                     0.        3.71819  -1.38845 
 H                     0.        3.75031   2.47646 
 H                     0.        3.75031  -2.47646 
 C                     0.        6.18581   1.40502 
 C                     0.        7.41599   0.72373 
 C                     0.        7.41599  -0.72373 
 C                     0.        6.18581  -1.40502 
 H                     0.        6.18475   2.49729 
 H                     0.        6.18475  -2.49729 
 C                     0.       -4.97168   0.71977 
 C                     0.       -3.71819   1.38845 
 C                     0.       -3.71819  -1.38845 
 C                     0.       -4.97168  -0.71977 
 H                     0.       -3.75031   2.47646 
 H                     0.       -3.75031  -2.47646 
 C                     0.       -7.41599   0.72373 
 C                     0.       -6.18581   1.40502 
 C                     0.       -6.18581  -1.40502 
 C                     0.       -7.41599  -0.72373 
 H                     0.       -6.18475   2.49729 
 H                     0.       -6.18475  -2.49729 
 C                     0.        8.65215   1.40386 
 C                     0.        8.65215  -1.40386 
 H                     0.        8.65296   2.49616 
 H                     0.        8.65296  -2.49616 
 C                     0.       -8.65215   1.40386 
 C                     0.       -8.65215  -1.40386 
 C                     0.       -9.86296  -0.72319 
 C                     0.       -9.86296   0.72319 
 H                     0.       -8.65296   2.49616 
 H                     0.       -8.65296  -2.49616 
 C                     0.        9.86296   0.72319 
 C                     0.        11.12375   1.40709 
 C                     0.        12.29836   0.71466 
 C                     0.        12.29836  -0.71466 
 C                     0.        11.12375  -1.40709 
 C                     0.        9.86296  -0.72319 
 H                     0.        11.12159   2.49845 
 H                     0.        13.24888   1.24902 
 H                     0.        13.24888  -1.24902 
 H                     0.        11.12159  -2.49845 
 C                     0.       -11.12375   1.40709 
 C                     0.       -11.12375  -1.40709 
 C                     0.       -12.29836  -0.71466 
 C                     0.       -12.29836   0.71466 
 H                     0.       -11.12159   2.49845 
 H                     0.       -11.12159  -2.49845 
 H                     0.       -13.24888  -1.24902 
 H                     0.       -13.24888   1.24902 
 
 ITRead=  0  0  0  0  0  0  0  0  0  0  0  0  0  0  0  0  0  0  0  0
 ITRead=  0  0  0  0  0  0  0  0  0  0  0  0  0  0  0  0  0  0  0  0
 ITRead=  0  0  0  0  0  0  0  0  0  0  0  0  0  0  0  0  0  0  0  0
 ITRead=  0  0  0  0  0  0  0  0  0  0  0  0  0  0
 MicOpt= -1 -1 -1 -1 -1 -1 -1 -1 -1 -1 -1 -1 -1 -1 -1 -1 -1 -1 -1 -1
 MicOpt= -1 -1 -1 -1 -1 -1 -1 -1 -1 -1 -1 -1 -1 -1 -1 -1 -1 -1 -1 -1
 MicOpt= -1 -1 -1 -1 -1 -1 -1 -1 -1 -1 -1 -1 -1 -1 -1 -1 -1 -1 -1 -1
 MicOpt= -1 -1 -1 -1 -1 -1 -1 -1 -1 -1 -1 -1 -1 -1
 NAtoms=     74 NQM=       74 NQMF=       0 NMMI=      0 NMMIF=      0
                NMic=       0 NMicF=      0.
                    Isotopes and Nuclear Properties:
 (Nuclear quadrupole moments (NQMom) in fm**2, nuclear magnetic moments (NMagM)
  in nuclear magnetons)

  Atom         1           2           3           4           5           6           7           8           9          10
 IAtWgt=          12          12          12          12          12          12          12          12          12          12
 AtmWgt=  12.0000000  12.0000000  12.0000000  12.0000000  12.0000000  12.0000000  12.0000000  12.0000000  12.0000000  12.0000000
 NucSpn=           0           0           0           0           0           0           0           0           0           0
 AtZEff=  -0.0000000  -0.0000000  -0.0000000  -0.0000000  -0.0000000  -0.0000000  -0.0000000  -0.0000000  -0.0000000  -0.0000000
 NQMom=    0.0000000   0.0000000   0.0000000   0.0000000   0.0000000   0.0000000   0.0000000   0.0000000   0.0000000   0.0000000
 NMagM=    0.0000000   0.0000000   0.0000000   0.0000000   0.0000000   0.0000000   0.0000000   0.0000000   0.0000000   0.0000000
 AtZNuc=   6.0000000   6.0000000   6.0000000   6.0000000   6.0000000   6.0000000   6.0000000   6.0000000   6.0000000   6.0000000

  Atom        11          12          13          14          15          16          17          18          19          20
 IAtWgt=          12           1          12          12          12          12          12           1           1           1
 AtmWgt=  12.0000000   1.0078250  12.0000000  12.0000000  12.0000000  12.0000000  12.0000000   1.0078250   1.0078250   1.0078250
 NucSpn=           0           1           0           0           0           0           0           1           1           1
 AtZEff=  -0.0000000  -0.0000000  -0.0000000  -0.0000000  -0.0000000  -0.0000000  -0.0000000  -0.0000000  -0.0000000  -0.0000000
 NQMom=    0.0000000   0.0000000   0.0000000   0.0000000   0.0000000   0.0000000   0.0000000   0.0000000   0.0000000   0.0000000
 NMagM=    0.0000000   2.7928460   0.0000000   0.0000000   0.0000000   0.0000000   0.0000000   2.7928460   2.7928460   2.7928460
 AtZNuc=   6.0000000   1.0000000   6.0000000   6.0000000   6.0000000   6.0000000   6.0000000   1.0000000   1.0000000   1.0000000

  Atom        21          22          23          24          25          26          27          28          29          30
 IAtWgt=           1           1          12          12          12          12           1           1          12          12
 AtmWgt=   1.0078250   1.0078250  12.0000000  12.0000000  12.0000000  12.0000000   1.0078250   1.0078250  12.0000000  12.0000000
 NucSpn=           1           1           0           0           0           0           1           1           0           0
 AtZEff=  -0.0000000  -0.0000000  -0.0000000  -0.0000000  -0.0000000  -0.0000000  -0.0000000  -0.0000000  -0.0000000  -0.0000000
 NQMom=    0.0000000   0.0000000   0.0000000   0.0000000   0.0000000   0.0000000   0.0000000   0.0000000   0.0000000   0.0000000
 NMagM=    2.7928460   2.7928460   0.0000000   0.0000000   0.0000000   0.0000000   2.7928460   2.7928460   0.0000000   0.0000000
 AtZNuc=   1.0000000   1.0000000   6.0000000   6.0000000   6.0000000   6.0000000   1.0000000   1.0000000   6.0000000   6.0000000

  Atom        31          32          33          34          35          36          37          38          39          40
 IAtWgt=          12          12           1           1          12          12          12          12           1           1
 AtmWgt=  12.0000000  12.0000000   1.0078250   1.0078250  12.0000000  12.0000000  12.0000000  12.0000000   1.0078250   1.0078250
 NucSpn=           0           0           1           1           0           0           0           0           1           1
 AtZEff=  -0.0000000  -0.0000000  -0.0000000  -0.0000000  -0.0000000  -0.0000000  -0.0000000  -0.0000000  -0.0000000  -0.0000000
 NQMom=    0.0000000   0.0000000   0.0000000   0.0000000   0.0000000   0.0000000   0.0000000   0.0000000   0.0000000   0.0000000
 NMagM=    0.0000000   0.0000000   2.7928460   2.7928460   0.0000000   0.0000000   0.0000000   0.0000000   2.7928460   2.7928460
 AtZNuc=   6.0000000   6.0000000   1.0000000   1.0000000   6.0000000   6.0000000   6.0000000   6.0000000   1.0000000   1.0000000

  Atom        41          42          43          44          45          46          47          48          49          50
 IAtWgt=          12          12          12          12           1           1          12          12           1           1
 AtmWgt=  12.0000000  12.0000000  12.0000000  12.0000000   1.0078250   1.0078250  12.0000000  12.0000000   1.0078250   1.0078250
 NucSpn=           0           0           0           0           1           1           0           0           1           1
 AtZEff=  -0.0000000  -0.0000000  -0.0000000  -0.0000000  -0.0000000  -0.0000000  -0.0000000  -0.0000000  -0.0000000  -0.0000000
 NQMom=    0.0000000   0.0000000   0.0000000   0.0000000   0.0000000   0.0000000   0.0000000   0.0000000   0.0000000   0.0000000
 NMagM=    0.0000000   0.0000000   0.0000000   0.0000000   2.7928460   2.7928460   0.0000000   0.0000000   2.7928460   2.7928460
 AtZNuc=   6.0000000   6.0000000   6.0000000   6.0000000   1.0000000   1.0000000   6.0000000   6.0000000   1.0000000   1.0000000

  Atom        51          52          53          54          55          56          57          58          59          60
 IAtWgt=          12          12          12          12           1           1          12          12          12          12
 AtmWgt=  12.0000000  12.0000000  12.0000000  12.0000000   1.0078250   1.0078250  12.0000000  12.0000000  12.0000000  12.0000000
 NucSpn=           0           0           0           0           1           1           0           0           0           0
 AtZEff=  -0.0000000  -0.0000000  -0.0000000  -0.0000000  -0.0000000  -0.0000000  -0.0000000  -0.0000000  -0.0000000  -0.0000000
 NQMom=    0.0000000   0.0000000   0.0000000   0.0000000   0.0000000   0.0000000   0.0000000   0.0000000   0.0000000   0.0000000
 NMagM=    0.0000000   0.0000000   0.0000000   0.0000000   2.7928460   2.7928460   0.0000000   0.0000000   0.0000000   0.0000000
 AtZNuc=   6.0000000   6.0000000   6.0000000   6.0000000   1.0000000   1.0000000   6.0000000   6.0000000   6.0000000   6.0000000

  Atom        61          62          63          64          65          66          67          68          69          70
 IAtWgt=          12          12           1           1           1           1          12          12          12          12
 AtmWgt=  12.0000000  12.0000000   1.0078250   1.0078250   1.0078250   1.0078250  12.0000000  12.0000000  12.0000000  12.0000000
 NucSpn=           0           0           1           1           1           1           0           0           0           0
 AtZEff=  -0.0000000  -0.0000000  -0.0000000  -0.0000000  -0.0000000  -0.0000000  -0.0000000  -0.0000000  -0.0000000  -0.0000000
 NQMom=    0.0000000   0.0000000   0.0000000   0.0000000   0.0000000   0.0000000   0.0000000   0.0000000   0.0000000   0.0000000
 NMagM=    0.0000000   0.0000000   2.7928460   2.7928460   2.7928460   2.7928460   0.0000000   0.0000000   0.0000000   0.0000000
 AtZNuc=   6.0000000   6.0000000   1.0000000   1.0000000   1.0000000   1.0000000   6.0000000   6.0000000   6.0000000   6.0000000

  Atom        71          72          73          74
 IAtWgt=           1           1           1           1
 AtmWgt=   1.0078250   1.0078250   1.0078250   1.0078250
 NucSpn=           1           1           1           1
 AtZEff=  -0.0000000  -0.0000000  -0.0000000  -0.0000000
 NQMom=    0.0000000   0.0000000   0.0000000   0.0000000
 NMagM=    2.7928460   2.7928460   2.7928460   2.7928460
 AtZNuc=   1.0000000   1.0000000   1.0000000   1.0000000
 Leave Link  101 at Mon Feb  3 17:08:03 2020, MaxMem=  6710886400 cpu:               2.8 elap:               0.2
 (Enter /opt/ohpc/pub/libs/gaussian/g16-A.03/sandybridge/g16/l202.exe)
 Stoichiometry    C48H26
 Framework group  D2H[C2"(HCC.CCH),SG(C44H24)]
 Deg. of freedom    37
 Full point group                 D2H     NOp   8
 Largest Abelian subgroup         D2H     NOp   8
 Largest concise Abelian subgroup D2      NOp   4
                         Standard orientation:                         
 ---------------------------------------------------------------------
 Center     Atomic      Atomic             Coordinates (Angstroms)
 Number     Number       Type             X           Y           Z
 ---------------------------------------------------------------------
      1          6           0        0.000000    0.000000    3.537928
      2          6           0        0.000000    1.198662    2.843870
      3          6           0        0.000000    1.227234    1.444743
      4          6           0        0.000000    0.000000    0.730717
      5          6           0       -0.000000   -1.227234    1.444743
      6          6           0       -0.000000   -1.198662    2.843870
      7          6           0        0.000000    2.512309    0.722226
      8          6           0        0.000000    0.000000   -0.730717
      9          6           0        0.000000    1.227234   -1.444743
     10          6           0        0.000000    2.512309   -0.722226
     11          6           0        0.000000    1.198662   -2.843870
     12          1           0        0.000000    2.125321   -3.412435
     13          6           0        0.000000    0.000000   -3.537928
     14          6           0       -0.000000   -1.198662   -2.843870
     15          6           0       -0.000000   -1.227234   -1.444743
     16          6           0       -0.000000   -2.512309   -0.722226
     17          6           0       -0.000000   -2.512309    0.722226
     18          1           0        0.000000    0.000000    4.628143
     19          1           0       -0.000000    2.125321    3.412435
     20          1           0       -0.000000   -2.125321    3.412435
     21          1           0        0.000000    0.000000   -4.628143
     22          1           0       -0.000000   -2.125321   -3.412435
     23          6           0        0.000000    3.718191    1.388450
     24          6           0        0.000000    4.971682    0.719770
     25          6           0        0.000000    4.971682   -0.719770
     26          6           0        0.000000    3.718191   -1.388450
     27          1           0        0.000000    3.750308    2.476462
     28          1           0        0.000000    3.750308   -2.476462
     29          6           0        0.000000    6.185808    1.405016
     30          6           0        0.000000    7.415985    0.723728
     31          6           0        0.000000    7.415985   -0.723728
     32          6           0        0.000000    6.185808   -1.405016
     33          1           0        0.000000    6.184746    2.497288
     34          1           0        0.000000    6.184746   -2.497288
     35          6           0       -0.000000   -4.971682    0.719770
     36          6           0       -0.000000   -3.718191    1.388450
     37          6           0       -0.000000   -3.718191   -1.388450
     38          6           0       -0.000000   -4.971682   -0.719770
     39          1           0       -0.000000   -3.750308    2.476462
     40          1           0       -0.000000   -3.750308   -2.476462
     41          6           0       -0.000000   -7.415985    0.723728
     42          6           0       -0.000000   -6.185808    1.405016
     43          6           0       -0.000000   -6.185808   -1.405016
     44          6           0       -0.000000   -7.415985   -0.723728
     45          1           0       -0.000000   -6.184746    2.497288
     46          1           0       -0.000000   -6.184746   -2.497288
     47          6           0        0.000000    8.652150    1.403863
     48          6           0        0.000000    8.652150   -1.403863
     49          1           0        0.000000    8.652960    2.496158
     50          1           0        0.000000    8.652960   -2.496158
     51          6           0       -0.000000   -8.652150    1.403863
     52          6           0       -0.000000   -8.652150   -1.403863
     53          6           0        0.000000   -9.862957   -0.723193
     54          6           0       -0.000000   -9.862957    0.723193
     55          1           0       -0.000000   -8.652960    2.496158
     56          1           0       -0.000000   -8.652960   -2.496158
     57          6           0        0.000000    9.862957    0.723193
     58          6           0        0.000000   11.123753    1.407086
     59          6           0        0.000000   12.298362    0.714659
     60          6           0        0.000000   12.298362   -0.714659
     61          6           0        0.000000   11.123753   -1.407086
     62          6           0        0.000000    9.862957   -0.723193
     63          1           0        0.000000   11.121586    2.498454
     64          1           0        0.000000   13.248881    1.249019
     65          1           0        0.000000   13.248881   -1.249019
     66          1           0        0.000000   11.121586   -2.498454
     67          6           0       -0.000000  -11.123753    1.407086
     68          6           0       -0.000000  -11.123753   -1.407086
     69          6           0       -0.000000  -12.298362   -0.714659
     70          6           0       -0.000000  -12.298362    0.714659
     71          1           0       -0.000000  -11.121586    2.498454
     72          1           0       -0.000000  -11.121586   -2.498454
     73          1           0       -0.000000  -13.248881   -1.249019
     74          1           0       -0.000000  -13.248881    1.249019
 ---------------------------------------------------------------------
 Rotational constants (GHZ):           0.3369734           0.0168628           0.0160592
 Leave Link  202 at Mon Feb  3 17:08:03 2020, MaxMem=  6710886400 cpu:               0.8 elap:               0.1
 (Enter /opt/ohpc/pub/libs/gaussian/g16-A.03/sandybridge/g16/l301.exe)
 Standard basis: def2TZVP (5D, 7F)
 Ernie: Thresh=  0.10000D-02 Tol=  0.10000D-05 Strict=F.
 There are   343 symmetry adapted cartesian basis functions of AG  symmetry.
 There are   133 symmetry adapted cartesian basis functions of B1G symmetry.
 There are   144 symmetry adapted cartesian basis functions of B2G symmetry.
 There are   322 symmetry adapted cartesian basis functions of B3G symmetry.
 There are   133 symmetry adapted cartesian basis functions of AU  symmetry.
 There are   343 symmetry adapted cartesian basis functions of B1U symmetry.
 There are   322 symmetry adapted cartesian basis functions of B2U symmetry.
 There are   144 symmetry adapted cartesian basis functions of B3U symmetry.
 There are   293 symmetry adapted basis functions of AG  symmetry.
 There are   122 symmetry adapted basis functions of B1G symmetry.
 There are   131 symmetry adapted basis functions of B2G symmetry.
 There are   276 symmetry adapted basis functions of B3G symmetry.
 There are   122 symmetry adapted basis functions of AU  symmetry.
 There are   293 symmetry adapted basis functions of B1U symmetry.
 There are   276 symmetry adapted basis functions of B2U symmetry.
 There are   131 symmetry adapted basis functions of B3U symmetry.
  1644 basis functions,  2656 primitive gaussians,  1884 cartesian basis functions
   157 alpha electrons      157 beta electrons
       nuclear repulsion energy      4739.7320332615 Hartrees.
 IExCor=33909 DFT=T Ex+Corr=LC-wHPBE ExCW=0 ScaHFX=  1.000000
 ScaDFX=  1.000000  1.000000  1.000000  1.000000 ScalE2=  1.000000  1.000000
 IRadAn=      5 IRanWt=     -1 IRanGd=            0 ICorTp=0 IEmpDi=  4
 HFx  wShort=  0.000000 wLong=  0.178000 cFull=  0.000000 cShort=  0.000000 cLong=  1.000000
 DFx  wShort=  0.000000 wLong=  0.178000 cFull=  0.000000 cShort=  1.000000 cLong=  0.000000
 NAtoms=   74 NActive=   74 NUniq=   20 SFac= 4.00D+00 NAtFMM=   60 NAOKFM=T Big=F
 Integral buffers will be    131072 words long.
 Raffenetti 2 integral format.
 Two-electron integral symmetry is turned on.
 Leave Link  301 at Mon Feb  3 17:08:03 2020, MaxMem=  6710886400 cpu:               1.0 elap:               0.1
 (Enter /opt/ohpc/pub/libs/gaussian/g16-A.03/sandybridge/g16/l302.exe)
 NPDir=0 NMtPBC=     1 NCelOv=     1 NCel=       1 NClECP=     1 NCelD=      1
         NCelK=      1 NCelE2=     1 NClLst=     1 CellRange=     0.0.
 One-electron integrals computed using PRISM.
 One-electron integral symmetry used in STVInt
   8 Symmetry operations used in ECPInt.
 ECPInt:  NShTT=  200028 NPrTT=  624420 LenC2=  115889 LenP2D=  240169.
 LDataN:  DoStor=T MaxTD1= 6 Len=  172
 NBasis=  1644 RedAO= T EigKep=  1.77D-06  NBF=   293   122   131   276   122   293   276   131
 NBsUse=  1643 1.00D-06 EigRej=  9.18D-07 NBFU=   293   122   131   276   122   292   276   131
 Precomputing XC quadrature grid using
 IXCGrd= 4 IRadAn=           5 IRanWt=          -1 IRanGd=           0 AccXCQ= 0.00D+00.
 Generated NRdTot=       0 NPtTot=           0 NUsed=           0 NTot=          32
 NSgBfM=  1492  1476  1478  1490  1492 MxSgAt=    74 MxSgA2=    74.
 Leave Link  302 at Mon Feb  3 17:08:07 2020, MaxMem=  6710886400 cpu:              63.2 elap:               4.0
 (Enter /opt/ohpc/pub/libs/gaussian/g16-A.03/sandybridge/g16/l303.exe)
 DipDrv:  MaxL=1.
 Leave Link  303 at Mon Feb  3 17:08:08 2020, MaxMem=  6710886400 cpu:               7.6 elap:               0.5
 (Enter /opt/ohpc/pub/libs/gaussian/g16-A.03/sandybridge/g16/l308.exe)
 Leave Link  308 at Mon Feb  3 17:08:09 2020, MaxMem=  6710886400 cpu:              14.2 elap:               1.0
 (Enter /opt/ohpc/pub/libs/gaussian/g16-A.03/sandybridge/g16/l401.exe)
 ExpMin= 9.52D-02 ExpMax= 1.36D+04 ExpMxC= 4.63D+02 IAcc=3 IRadAn=         5 AccDes= 0.00D+00
 Harris functional with IExCor=33909 and IRadAn=       5 diagonalized for initial guess.
 HarFok:  IExCor=33909 AccDes= 0.00D+00 IRadAn=         5 IDoV= 1 UseB2=F ITyADJ=14
 ICtDFT=  3500011 ScaDFX=  1.000000  1.000000  1.000000  1.000000
 FoFCou: FMM=F IPFlag=           0 FMFlag=      100000 FMFlg1=        2000
         NFxFlg=           0 DoJE=T BraDBF=F KetDBF=T FulRan=T
         wScrn=  0.000000 ICntrl=       500 IOpCl=  0 I1Cent=   200000004 NGrid=           0
         NMat0=    1 NMatS0=      1 NMatT0=    0 NMatD0=    1 NMtDS0=    0 NMtDT0=    0
 Petite list used in FoFCou.
 Harris En= -1813.89905902122    
 JPrj=0 DoOrth=F DoCkMO=F.
 Initial guess orbital symmetries:
 Alpha Orbitals:
       Occupied  (B1U) (AG) (B3G) (B2U) (B1U) (AG) (B2U) (AG) (B3G)
                 (B1U) (B1U) (B3G) (B2U) (AG) (B2U) (B3G) (B1U)
                 (AG) (B3G) (B1U) (B2U) (AG) (B3G) (B1U) (B2U)
                 (AG) (B2U) (AG) (B3G) (B1U) (B2U) (AG) (B3G) (B1U)
                 (B2U) (AG) (B3G) (B1U) (B2U) (AG) (B1U) (B3G)
                 (AG) (B1U) (B2U) (B3G) (AG) (B1U) (AG) (B2U) (AG)
                 (B2U) (AG) (B1U) (B2U) (AG) (B2U) (AG) (B3G) (B1U)
                 (B3G) (AG) (B1U) (B2U) (B3G) (B1U) (AG) (B3G)
                 (B1U) (B2U) (B1U) (B3G) (B2U) (AG) (B1U) (B3G)
                 (AG) (B2U) (AG) (B3G) (B2U) (AG) (B2U) (AG) (B1U)
                 (B2U) (B1U) (B3G) (AG) (B2U) (AG) (B2U) (AG) (B1U)
                 (B2U) (B3G) (B2U) (AG) (B1U) (AG) (B3G) (B2U)
                 (AG) (B1U) (B2U) (B3G) (B1U) (B3G) (AG) (B3G)
                 (AG) (B2U) (B1U) (B3G) (B1U) (AG) (B3G) (B1U)
                 (B3U) (B2U) (B1U) (B1G) (B3U) (B3G) (AG) (B1G)
                 (B1U) (B2U) (B2U) (B3U) (B3G) (B1U) (B2G) (AG)
                 (B1G) (B2U) (B3G) (AG) (B3U) (B2U) (AG) (B1G)
                 (AU) (B2G) (B3U) (AU) (B2G) (B3U) (AU) (B1G) (B2G)
                 (B3U) (AU) (B2G) (B1G) (AU) (B2G)
       Virtual   (B1G) (B3U) (AU) (B1G) (B3U) (B2G) (B3U) (AU)
                 (B1G) (B3U) (B2G) (B1G) (B3U) (B2G) (B1G) (AU)
                 (B2G) (B1U) (AG) (B3G) (AG) (B2U) (AU) (B2U) (B1U)
                 (AG) (B3G) (B3U) (B2U) (B2G) (AG) (B1U) (B2U)
                 (B3G) (AU) (AG) (B1U) (AG) (B2G) (B3G) (B2U) (B2U)
                 (AG) (B1U) (AU) (AG) (B1U) (AG) (B1U) (B2U) (B3G)
                 (B2U) (AG) (B1U) (B2U) (B2U) (B3G) (B1U) (B3G)
                 (B2G) (B1U) (B2U) (AG) (B3G) (AG) (AG) (B3G) (B1U)
                 (B3G) (B3U) (B1U) (B2U) (AG) (B1G) (B1U) (B3G)
                 (B3G) (B3U) (B2U) (AG) (B2U) (B1U) (AG) (B1G)
                 (B3G) (B1U) (B2G) (B2U) (AG) (B2U) (B1U) (B3U)
                 (AU) (B3G) (AG) (B3G) (AG) (B1G) (B2G) (AU) (AG)
                 (B2U) (B1U) (B2U) (B3U) (B2G) (B2U) (B3U) (B1U)
                 (AG) (B3G) (B2U) (B1G) (AU) (AG) (B1U) (B1G) (B2G)
                 (B2U) (B3U) (AG) (AG) (B2U) (B3U) (B1U) (B1G)
                 (B2U) (B3G) (B1U) (B3U) (B3G) (AU) (AG) (B1U)
                 (B2G) (B1G) (B3G) (B2U) (AG) (B1U) (B3G) (B2G)
                 (B1G) (B1U) (B3G) (B2U) (AG) (B3U) (B2U) (AG)
                 (B2U) (B3U) (AG) (B1U) (AG) (B3G) (B3G) (AU) (B1U)
                 (AG) (B1G) (B2U) (B3G) (B1U) (B2U) (B3G) (B3U)
                 (B2G) (AG) (B1U) (B2U) (B1G) (B1U) (B3G) (B1U)
                 (AG) (AU) (B3U) (B2U) (AG) (B2U) (AG) (B3G) (B1U)
                 (B3G) (B2G) (B3G) (B1U) (AG) (AU) (B1U) (B3U)
                 (B1G) (B2U) (B1G) (AU) (B2G) (B3G) (B1U) (B2U)
                 (B3G) (AG) (B2G) (B1U) (B3U) (B3G) (B1U) (B2U)
                 (B1U) (AG) (B3G) (B3G) (B2U) (AG) (B3U) (AU) (B1U)
                 (B2U) (B3G) (AG) (B2G) (B1U) (AU) (B1G) (B2U)
                 (AG) (B1U) (B2G) (B3G) (AG) (B2U) (B1G) (AG) (B3U)
                 (B2U) (B3G) (B2U) (B1U) (AG) (B3U) (B3G) (B1U)
                 (B3G) (B1U) (AG) (B1G) (B1U) (B3G) (AU) (B2G)
                 (B3G) (B1U) (AG) (B1G) (B2U) (B3U) (B2U) (B1U)
                 (B3G) (B1U) (B3G) (B3G) (B3U) (B1U) (B1G) (AG)
                 (B1U) (B2U) (B3G) (B2G) (AG) (AU) (B1U) (B2U)
                 (B3G) (B1U) (AG) (B3G) (B1U) (B1G) (AG) (B2U)
                 (B3G) (B2U) (B3U) (AG) (AG) (B2U) (B2G) (AU) (B1U)
                 (B3U) (AU) (B1U) (B2G) (B3G) (AG) (B2U) (B1G)
                 (AU) (B3G) (B2U) (AG) (B1U) (B3U) (AG) (B3G) (B2U)
                 (B2G) (B1U) (B2U) (AU) (AG) (B1G) (B2U) (B1U)
                 (AG) (B1G) (AG) (B3G) (AG) (B2G) (B1U) (B3U) (B2U)
                 (B2U) (B3G) (AG) (AG) (B2U) (B3G) (B1U) (AG) (B2U)
                 (AU) (AG) (B1U) (AG) (B3U) (B2G) (B1G) (B2U) (B3G)
                 (B1U) (B2U) (AG) (B2U) (B2U) (AG) (B3G) (B1G)
                 (B3G) (B1U) (B2U) (B3U) (AU) (B3G) (B2U) (B1U)
                 (AG) (B1U) (AG) (B3G) (B1G) (B2G) (B3U) (AG) (B2U)
                 (B3G) (B1U) (AG) (B2G) (B2U) (AU) (B3G) (B1U)
                 (B2U) (AU) (B3U) (B1G) (AG) (B2U) (B3G) (AG) (B1U)
                 (B2G) (B2U) (B3G) (B1U) (B1U) (AU) (AG) (B3G)
                 (B2U) (B1G) (B2G) (B2U) (B1U) (AU) (B3G) (AG)
                 (B1U) (B2G) (B3U) (AG) (AG) (B2U) (B3U) (B1U)
                 (AG) (B3G) (B3G) (AU) (B1U) (B1G) (B2G) (B3U)
                 (B3G) (B2U) (AG) (B1U) (B2G) (AU) (B1G) (B3U)
                 (B2U) (B3U) (B1G) (AG) (AG) (B1G) (B3G) (B3U)
                 (B2U) (B1U) (AG) (B2U) (B3U) (B2G) (B3G) (B1G)
                 (B2U) (B1U) (B3G) (AG) (B1U) (B3G) (AG) (AU) (B2G)
                 (B2U) (B3G) (B1U) (B1G) (B2G) (AG) (B2U) (AU)
                 (AG) (B1G) (B1U) (B3U) (B2U) (B2U) (B1U) (B3G)
                 (AU) (B2G) (B1U) (B3U) (B3G) (AG) (B1G) (B3U)
                 (B1U) (B3G) (B3G) (B1U) (AG) (B2U) (B3G) (B2U)
                 (B2G) (AG) (AU) (B1G) (B1U) (B3U) (B3G) (AG) (B2U)
                 (B3U) (AU) (B1U) (B2G) (B3G) (B1U) (B3G) (B3G)
                 (B1G) (B1U) (B2G) (B2U) (B1U) (AG) (B2U) (AG)
                 (B3U) (AU) (B2U) (B1U) (B3G) (B1G) (B1U) (AG)
                 (B2G) (AU) (B3G) (B2U) (AG) (B3U) (B2G) (AG) (AU)
                 (B3U) (B1U) (B1G) (B2U) (B3G) (B2U) (AG) (B3G)
                 (B2U) (AG) (AU) (B3G) (B1U) (B1U) (B3U) (B2U)
                 (B1G) (B1U) (AG) (B2G) (AG) (B2U) (B2U) (AG) (B3G)
                 (B1U) (AG) (B3G) (B1U) (B2U) (AG) (B2G) (AU) (B2G)
                 (B3G) (B2U) (AU) (AG) (B1U) (B3U) (B1G) (B2U)
                 (AU) (B2G) (AG) (B3G) (AU) (B2G) (AG) (B2U) (B1G)
                 (AU) (B1U) (B3G) (B1U) (B1U) (B3U) (B2G) (B1G)
                 (B3U) (B3G) (B1G) (AG) (B2U) (AG) (B2G) (B1U)
                 (B3U) (B2U) (B3G) (B1U) (AU) (B3G) (AG) (B3G)
                 (B1U) (B1G) (B3U) (B2G) (B1U) (B3G) (B1U) (B2U)
                 (B3G) (B1U) (AU) (B2U) (B1G) (AG) (B3G) (B3U)
                 (B1G) (B1U) (B2G) (B3U) (AU) (B2G) (B2G) (AU)
                 (B3G) (B3U) (B2G) (B1G) (AG) (B2U) (AU) (B1U)
                 (AU) (B2G) (B2U) (B3U) (AG) (AG) (B2G) (AG) (B2U)
                 (AU) (B1U) (B3G) (B1G) (B3U) (B1G) (B3G) (B2U)
                 (B3U) (B2G) (AG) (B1U) (B1G) (B3G) (AU) (B1U)
                 (B2U) (B2G) (AG) (B3U) (B2U) (AG) (AG) (AU) (B2U)
                 (B1G) (B3G) (B2U) (AG) (B1U) (B2G) (B2U) (B3U)
                 (B1G) (B3G) (AG) (B2U) (B3G) (B2U) (AG) (B1U)
                 (B3G) (B1U) (AG) (B2U) (AU) (B2U) (B1U) (AG) (B1U)
                 (B3G) (B2U) (B3G) (B2U) (AG) (B1U) (B3G) (B1U)
                 (AG) (B3G) (B2G) (B1U) (AU) (AG) (B2U) (B2U) (B3G)
                 (B3G) (AG) (B2U) (B1U) (AG) (B2G) (B3G) (AU) (B2G)
                 (B1U) (AU) (B3G) (B1U) (AG) (B1G) (B2U) (B1U)
                 (B3G) (AG) (B3U) (B2U) (AG) (B2U) (B1U) (AG) (B2U)
                 (B3G) (B3U) (B2G) (AU) (B1G) (B1U) (B3U) (AG)
                 (B2U) (B3G) (B3U) (B2G) (AU) (B1G) (B2U) (AG)
                 (B1U) (AG) (B2U) (B3G) (B1U) (B3U) (B1G) (B2U)
                 (AG) (B3G) (B1G) (AG) (B2U) (B1U) (B3G) (B1U)
                 (B3U) (B1G) (B3U) (B3G) (AG) (AG) (B2U) (B3G)
                 (B2U) (B1U) (AG) (B3G) (B2U) (AG) (B1U) (B1G)
                 (AG) (B2U) (B3G) (B1U) (B2U) (B1U) (B2G) (AG)
                 (B3U) (AU) (B2G) (B3G) (B3U) (B2U) (B1G) (B1U)
                 (B3G) (B2U) (B1U) (B2G) (B3U) (AG) (B3G) (B1G)
                 (B2U) (AU) (B3U) (B3G) (B1G) (AG) (AU) (B1U) (B3U)
                 (B1G) (AG) (B2G) (B2U) (AG) (B3U) (B2G) (B3U)
                 (B3G) (B1G) (B1U) (AG) (B3G) (B1U) (B2U) (AU)
                 (B2U) (B1U) (B1G) (AG) (B2G) (AU) (B3U) (B2G)
                 (B1G) (AU) (B3G) (B3U) (B2U) (AG) (B1U) (B3G)
                 (B3U) (B1G) (AG) (B1U) (B2U) (B3G) (B1U) (B3U)
                 (AG) (B2U) (B1U) (B1G) (B2U) (B2G) (B3G) (AG)
                 (B1G) (B1U) (AU) (B3G) (B2G) (AG) (B3U) (AU) (AG)
                 (AU) (B2U) (B2G) (B1U) (B2G) (AG) (B1G) (B3G)
                 (B2U) (B1U) (B3G) (B2U) (AG) (B1G) (AU) (B2U)
                 (B2G) (B1U) (B3U) (B3G) (B1U) (AG) (B2G) (B3U)
                 (B3G) (AU) (AG) (B1U) (B1G) (B3U) (B3G) (B2U)
                 (AG) (B1G) (B1U) (B1U) (B3U) (B3G) (B2U) (B1G)
                 (AU) (B3U) (AG) (B1U) (B3G) (B2U) (B3U) (B1U)
                 (B2U) (B1G) (B3G) (AG) (B2G) (B1U) (B3G) (B3U)
                 (B2U) (AG) (B1G) (B3G) (B3U) (B1U) (B2G) (B2U)
                 (B1G) (B1U) (B3G) (B3U) (AG) (B3G) (AU) (B1U)
                 (B2G) (B2U) (AG) (B1U) (AG) (AU) (B3U) (B1G) (B2G)
                 (B1G) (B2U) (B3G) (AG) (B3U) (B2U) (B2U) (AG)
                 (B1U) (B2G) (B1G) (B2U) (AU) (AG) (B3U) (B3G)
                 (B1U) (AG) (B2U) (AG) (B2G) (AU) (B3G) (B1G) (B3G)
                 (B2U) (B2U) (B1U) (B2G) (AU) (AG) (B3U) (B1G)
                 (B3U) (AG) (B3G) (B2U) (AU) (B1G) (B2G) (AG) (B2U)
                 (AU) (B1U) (B3U) (B2U) (B1U) (B3G) (B2G) (AG)
                 (B1G) (B1U) (AU) (B2U) (B3U) (B3G) (AU) (B1U)
                 (AU) (B1G) (AG) (B3G) (B3U) (B2G) (B1G) (B3U)
                 (B2G) (B2U) (AU) (B1G) (B3G) (AG) (AG) (B3G) (B2G)
                 (B1U) (AG) (AU) (B1U) (B2U) (B1G) (B2U) (B3U)
                 (B2G) (AG) (B1U) (B3U) (B2U) (B3G) (B1U) (AG)
                 (B2U) (B1G) (B3G) (B1U) (AG) (AU) (B2G) (B1U)
                 (B3G) (B3G) (AG) (B1U) (B2U) (AU) (B3G) (B1G)
                 (B1U) (B3G) (B3U) (B3U) (B2U) (B2G) (B1U) (B3G)
                 (AU) (AG) (B1G) (B3G) (B2G) (AU) (B2U) (AG) (B3U)
                 (B2U) (B1U) (B3U) (B2G) (B3G) (AG) (AU) (B1U)
                 (B1G) (AG) (B2G) (B1U) (AU) (AG) (B1G) (B3G) (B2G)
                 (B2U) (B1U) (B1G) (B2U) (AU) (B3U) (AU) (B2G)
                 (AU) (B1G) (B3G) (B2U) (B1U) (B3U) (B1U) (B2G)
                 (AG) (B3G) (B3U) (B2G) (B1G) (B1U) (B2U) (B2U)
                 (B3U) (B3G) (AG) (B1G) (B2U) (B2G) (AG) (AU) (B3G)
                 (B1U) (AU) (B3G) (B2G) (B2U) (AG) (B2G) (AG) (AU)
                 (B1U) (B3G) (B2G) (B2U) (AU) (B1G) (B1U) (AG)
                 (AG) (B2U) (AU) (B2G) (B3G) (B2U) (B1U) (B3G)
                 (B3U) (AG) (B1U) (B3G) (B2G) (AU) (AG) (B1U) (B1U)
                 (B3G) (B3G) (B2U) (B2U) (AG) (B3U) (AU) (B2U)
                 (B3G) (B1U) (AG) (B3G) (B1U) (B2G) (AU) (B2U)
                 (AG) (B3G) (B1U) (B1G) (B2G) (B2U) (AG) (B1U)
                 (B3U) (B3G) (B2U) (AG) (B1U) (B2U) (AG) (B3G)
                 (B1U) (B1U) (B3G) (B3G) (AG) (B2U) (B1U) (AG)
                 (B2U) (AG) (B2U) (B2G) (B3G) (B1U) (B3G) (B1G)
                 (AU) (B2U) (B1U) (AG) (B3U) (B1U) (B3G) (B1U)
                 (B3G) (B1G) (B3U) (AG) (B2G) (B3U) (B3G) (B1U)
                 (AU) (B1G) (B2G) (B2U) (B1U) (B1U) (AU) (B3G)
                 (B1G) (B2G) (AU) (B3U) (B1G) (B2G) (AG) (B2U)
                 (B3U) (B1U) (AG) (B3G) (B1G) (B3U) (B3G) (AU)
                 (AG) (B2U) (B1U) (B2G) (B1G) (B3G) (B2U) (B1G)
                 (B2U) (AG) (B1U) (B3G) (AG) (B2U) (AU) (B3U) (B2G)
                 (B3G) (B3U) (AG) (AU) (B2U) (B2G) (B3U) (B1U)
                 (B2U) (B1G) (AG) (AG) (B2U) (B3G) (B1U) (AG) (B1G)
                 (B2U) (B3U) (AU) (B1U) (B3G) (AG) (B1G) (B3U)
                 (B2U) (B1U) (AG) (B3G) (B1U) (AU) (B2G) (B2G)
                 (B2U) (B1U) (AU) (AG) (AU) (B3G) (B2U) (AG) (B1U)
                 (B2G) (B2G) (B1U) (B3G) (AG) (B2U) (B3G) (AU)
                 (B1G) (AG) (B1U) (B2U) (B2G) (B3U) (B3G) (B1U)
                 (B2U) (B2G) (AU) (B3G) (B3G) (AG) (B2U) (B2U)
                 (AG) (AU) (AG) (B1U) (B3G) (B1U) (B2G) (B2U) (B3G)
                 (AG) (B1U) (B2U) (B3G) (B1U) (B2G) (AU) (AG) (B3G)
                 (B3G) (B1U) (B1U) (AG) (AU) (B2U) (B2G) (B1U)
                 (B3G) (B2U) (AG) (B3G) (B1U) (AG) (B2G) (B2U)
                 (AU) (B3G) (AG) (AG) (B2U) (B1U) (B2U) (B3G) (B1U)
                 (AG) (AG) (B2U) (B2U) (AG) (B1U) (B3G) (B1U) (B2U)
                 (B3G) (B1U) (AG) (B2U) (B3G) (B1U) (B2U) (AG)
                 (B2U) (B3G) (AG) (B1U) (B1U) (B3G) (AG) (B2U)
                 (B3G) (B1U) (AG) (B2U) (B3G) (AG) (B1U) (B3G)
                 (B1U) (B2U) (B3G) (B2U) (AG) (B1U) (B3G) (B3G)
                 (B1U) (B1U) (B3G) (B1U) (B3G) (B1U) (B3G) (AG)
                 (B1U) (B3G) (B1U) (B3G) (B3G) (B1U) (B2U) (B1U)
                 (B3G) (B3G) (B1U) (B1U) (B3G) (B1U) (B3G) (AG)
                 (B2U) (AG) (B1U) (B3G) (B2U) (AG) (B2U) (B1U)
                 (AG) (B2U) (AG) (B2U) (AG) (B3G) (B2U) (AG) (B1U)
                 (AG) (B2U) (B3G) (B1U) (B1U) (B2U) (AG) (B3G)
                 (AG) (B2U) (B1U) (AG) (B3G) (B1U) (B3G) (B2U)
                 (B2U) (B1U) (AG) (B3G) (B3G) (B1U) (B1U) (AG)
                 (B3G) (B1U) (B3G) (B1U) (B3G) (B1U)
 Beta  Orbitals:
       Occupied  (B1U) (AG) (B3G) (B2U) (B1U) (AG) (B2U) (AG) (B3G)
                 (B1U) (B1U) (B3G) (B2U) (AG) (B2U) (B3G) (B1U)
                 (AG) (B3G) (B1U) (B2U) (AG) (B3G) (B1U) (B2U)
                 (AG) (B2U) (AG) (B3G) (B1U) (B2U) (AG) (B3G) (B1U)
                 (B2U) (AG) (B3G) (B1U) (B2U) (AG) (B1U) (B3G)
                 (AG) (B1U) (B2U) (B3G) (AG) (B1U) (AG) (B2U) (AG)
                 (B2U) (AG) (B1U) (B2U) (AG) (B2U) (AG) (B3G) (B1U)
                 (B3G) (AG) (B1U) (B2U) (B3G) (B1U) (AG) (B3G)
                 (B1U) (B2U) (B1U) (B3G) (B2U) (AG) (B1U) (B3G)
                 (AG) (B2U) (AG) (B3G) (B2U) (AG) (B2U) (AG) (B1U)
                 (B2U) (B1U) (B3G) (AG) (B2U) (AG) (B2U) (AG) (B1U)
                 (B2U) (B3G) (B2U) (AG) (B1U) (AG) (B3G) (B2U)
                 (AG) (B1U) (B2U) (B3G) (B1U) (B3G) (AG) (B3G)
                 (AG) (B2U) (B1U) (B3G) (B1U) (AG) (B3G) (B1U)
                 (B3U) (B2U) (B1U) (B1G) (B3U) (B3G) (AG) (B1G)
                 (B1U) (B2U) (B2U) (B3U) (B3G) (B1U) (B2G) (AG)
                 (B1G) (B2U) (B3G) (AG) (B3U) (B2U) (AG) (B1G)
                 (AU) (B2G) (B3U) (AU) (B2G) (B3U) (AU) (B1G) (B2G)
                 (B3U) (AU) (B2G) (B1G) (AU) (B2G)
       Virtual   (B1G) (B3U) (AU) (B1G) (B3U) (B2G) (B3U) (AU)
                 (B1G) (B3U) (B2G) (B1G) (B3U) (B2G) (B1G) (AU)
                 (B2G) (B1U) (AG) (B3G) (AG) (B2U) (AU) (B2U) (B1U)
                 (AG) (B3G) (B3U) (B2U) (B2G) (AG) (B1U) (B2U)
                 (B3G) (AU) (AG) (B1U) (AG) (B2G) (B3G) (B2U) (B2U)
                 (AG) (B1U) (AU) (AG) (B1U) (AG) (B1U) (B2U) (B3G)
                 (B2U) (AG) (B1U) (B2U) (B2U) (B3G) (B1U) (B3G)
                 (B2G) (B1U) (B2U) (AG) (B3G) (AG) (AG) (B3G) (B1U)
                 (B3G) (B3U) (B1U) (B2U) (AG) (B1G) (B1U) (B3G)
                 (B3G) (B3U) (B2U) (AG) (B2U) (B1U) (AG) (B1G)
                 (B3G) (B1U) (B2G) (B2U) (AG) (B2U) (B1U) (B3U)
                 (AU) (B3G) (AG) (B3G) (AG) (B1G) (B2G) (AU) (AG)
                 (B2U) (B1U) (B2U) (B3U) (B2G) (B2U) (B3U) (B1U)
                 (AG) (B3G) (B2U) (B1G) (AU) (AG) (B1U) (B1G) (B2G)
                 (B2U) (B3U) (AG) (AG) (B2U) (B3U) (B1U) (B1G)
                 (B2U) (B3G) (B1U) (B3U) (B3G) (AU) (AG) (B1U)
                 (B2G) (B1G) (B3G) (B2U) (AG) (B1U) (B3G) (B2G)
                 (B1G) (B1U) (B3G) (B2U) (AG) (B3U) (B2U) (AG)
                 (B2U) (B3U) (AG) (B1U) (AG) (B3G) (B3G) (AU) (B1U)
                 (AG) (B1G) (B2U) (B3G) (B1U) (B2U) (B3G) (B3U)
                 (B2G) (AG) (B1U) (B2U) (B1G) (B1U) (B3G) (B1U)
                 (AG) (AU) (B3U) (B2U) (AG) (B2U) (AG) (B3G) (B1U)
                 (B3G) (B2G) (B3G) (B1U) (AG) (AU) (B1U) (B3U)
                 (B1G) (B2U) (B1G) (AU) (B2G) (B3G) (B1U) (B2U)
                 (B3G) (AG) (B2G) (B1U) (B3U) (B3G) (B1U) (B2U)
                 (B1U) (AG) (B3G) (B3G) (B2U) (AG) (B3U) (AU) (B1U)
                 (B2U) (B3G) (AG) (B2G) (B1U) (AU) (B1G) (B2U)
                 (AG) (B1U) (B2G) (B3G) (AG) (B2U) (B1G) (AG) (B3U)
                 (B2U) (B3G) (B2U) (B1U) (AG) (B3U) (B3G) (B1U)
                 (B3G) (B1U) (AG) (B1G) (B1U) (B3G) (AU) (B2G)
                 (B3G) (B1U) (AG) (B1G) (B2U) (B3U) (B2U) (B1U)
                 (B3G) (B1U) (B3G) (B3G) (B3U) (B1U) (B1G) (AG)
                 (B1U) (B2U) (B3G) (B2G) (AG) (AU) (B1U) (B2U)
                 (B3G) (B1U) (AG) (B3G) (B1U) (B1G) (AG) (B2U)
                 (B3G) (B2U) (B3U) (AG) (AG) (B2U) (B2G) (AU) (B1U)
                 (B3U) (AU) (B1U) (B2G) (B3G) (AG) (B2U) (B1G)
                 (AU) (B3G) (B2U) (AG) (B1U) (B3U) (AG) (B3G) (B2U)
                 (B2G) (B1U) (B2U) (AU) (AG) (B1G) (B2U) (B1U)
                 (AG) (B1G) (AG) (B3G) (AG) (B2G) (B1U) (B3U) (B2U)
                 (B2U) (B3G) (AG) (AG) (B2U) (B3G) (B1U) (AG) (B2U)
                 (AU) (AG) (B1U) (AG) (B3U) (B2G) (B1G) (B2U) (B3G)
                 (B1U) (B2U) (AG) (B2U) (B2U) (AG) (B3G) (B1G)
                 (B3G) (B1U) (B2U) (B3U) (AU) (B3G) (B2U) (B1U)
                 (AG) (B1U) (AG) (B3G) (B1G) (B2G) (B3U) (AG) (B2U)
                 (B3G) (B1U) (AG) (B2G) (B2U) (AU) (B3G) (B1U)
                 (B2U) (AU) (B3U) (B1G) (AG) (B2U) (B3G) (AG) (B1U)
                 (B2G) (B2U) (B3G) (B1U) (B1U) (AU) (AG) (B3G)
                 (B2U) (B1G) (B2G) (B2U) (B1U) (AU) (B3G) (AG)
                 (B1U) (B2G) (B3U) (AG) (AG) (B2U) (B3U) (B1U)
                 (AG) (B3G) (B3G) (AU) (B1U) (B1G) (B2G) (B3U)
                 (B3G) (B2U) (AG) (B1U) (B2G) (AU) (B1G) (B3U)
                 (B2U) (B3U) (B1G) (AG) (AG) (B1G) (B3G) (B3U)
                 (B2U) (B1U) (AG) (B2U) (B3U) (B2G) (B3G) (B1G)
                 (B2U) (B1U) (B3G) (AG) (B1U) (B3G) (AG) (AU) (B2G)
                 (B2U) (B3G) (B1U) (B1G) (B2G) (AG) (B2U) (AU)
                 (AG) (B1G) (B1U) (B3U) (B2U) (B2U) (B1U) (B3G)
                 (AU) (B2G) (B1U) (B3U) (B3G) (AG) (B1G) (B3U)
                 (B1U) (B3G) (B3G) (B1U) (AG) (B2U) (B3G) (B2U)
                 (B2G) (AG) (AU) (B1G) (B1U) (B3U) (B3G) (AG) (B2U)
                 (B3U) (AU) (B1U) (B2G) (B3G) (B1U) (B3G) (B3G)
                 (B1G) (B1U) (B2G) (B2U) (B1U) (AG) (B2U) (AG)
                 (B3U) (AU) (B2U) (B1U) (B3G) (B1G) (B1U) (AG)
                 (B2G) (AU) (B3G) (B2U) (AG) (B3U) (B2G) (AG) (AU)
                 (B3U) (B1U) (B1G) (B2U) (B3G) (B2U) (AG) (B3G)
                 (B2U) (AG) (AU) (B3G) (B1U) (B1U) (B3U) (B2U)
                 (B1G) (B1U) (AG) (B2G) (AG) (B2U) (B2U) (AG) (B3G)
                 (B1U) (AG) (B3G) (B1U) (B2U) (AG) (B2G) (AU) (B2G)
                 (B3G) (B2U) (AU) (AG) (B1U) (B3U) (B1G) (B2U)
                 (AU) (B2G) (AG) (B3G) (AU) (B2G) (AG) (B2U) (B1G)
                 (AU) (B1U) (B3G) (B1U) (B1U) (B3U) (B2G) (B1G)
                 (B3U) (B3G) (B1G) (AG) (B2U) (AG) (B2G) (B1U)
                 (B3U) (B2U) (B3G) (B1U) (AU) (B3G) (AG) (B3G)
                 (B1U) (B1G) (B3U) (B2G) (B1U) (B3G) (B1U) (B2U)
                 (B3G) (B1U) (AU) (B2U) (B1G) (AG) (B3G) (B3U)
                 (B1G) (B1U) (B2G) (B3U) (AU) (B2G) (B2G) (AU)
                 (B3G) (B3U) (B2G) (B1G) (AG) (B2U) (AU) (B1U)
                 (AU) (B2G) (B2U) (B3U) (AG) (AG) (B2G) (AG) (B2U)
                 (AU) (B1U) (B3G) (B1G) (B3U) (B1G) (B3G) (B2U)
                 (B3U) (B2G) (AG) (B1U) (B1G) (B3G) (AU) (B1U)
                 (B2U) (B2G) (AG) (B3U) (B2U) (AG) (AG) (AU) (B2U)
                 (B1G) (B3G) (B2U) (AG) (B1U) (B2G) (B2U) (B3U)
                 (B1G) (B3G) (AG) (B2U) (B3G) (B2U) (AG) (B1U)
                 (B3G) (B1U) (AG) (B2U) (AU) (B2U) (B1U) (AG) (B1U)
                 (B3G) (B2U) (B3G) (B2U) (AG) (B1U) (B3G) (B1U)
                 (AG) (B3G) (B2G) (B1U) (AU) (AG) (B2U) (B2U) (B3G)
                 (B3G) (AG) (B2U) (B1U) (AG) (B2G) (B3G) (AU) (B2G)
                 (B1U) (AU) (B3G) (B1U) (AG) (B1G) (B2U) (B1U)
                 (B3G) (AG) (B3U) (B2U) (AG) (B2U) (B1U) (AG) (B2U)
                 (B3G) (B3U) (B2G) (AU) (B1G) (B1U) (B3U) (AG)
                 (B2U) (B3G) (B3U) (B2G) (AU) (B1G) (B2U) (AG)
                 (B1U) (AG) (B2U) (B3G) (B1U) (B3U) (B1G) (B2U)
                 (AG) (B3G) (B1G) (AG) (B2U) (B1U) (B3G) (B1U)
                 (B3U) (B1G) (B3U) (B3G) (AG) (AG) (B2U) (B3G)
                 (B2U) (B1U) (AG) (B3G) (B2U) (AG) (B1U) (B1G)
                 (AG) (B2U) (B3G) (B1U) (B2U) (B1U) (B2G) (AG)
                 (B3U) (AU) (B2G) (B3G) (B3U) (B2U) (B1G) (B1U)
                 (B3G) (B2U) (B1U) (B2G) (B3U) (AG) (B3G) (B1G)
                 (B2U) (AU) (B3U) (B3G) (B1G) (AG) (AU) (B1U) (B3U)
                 (B1G) (AG) (B2G) (B2U) (AG) (B3U) (B2G) (B3U)
                 (B3G) (B1G) (B1U) (AG) (B3G) (B1U) (B2U) (AU)
                 (B2U) (B1U) (B1G) (AG) (B2G) (AU) (B3U) (B2G)
                 (B1G) (AU) (B3G) (B3U) (B2U) (AG) (B1U) (B3G)
                 (B3U) (B1G) (AG) (B1U) (B2U) (B3G) (B1U) (B3U)
                 (AG) (B2U) (B1U) (B1G) (B2U) (B2G) (B3G) (AG)
                 (B1G) (B1U) (AU) (B3G) (B2G) (AG) (B3U) (AU) (AG)
                 (AU) (B2U) (B2G) (B1U) (B2G) (AG) (B1G) (B3G)
                 (B2U) (B1U) (B3G) (B2U) (AG) (B1G) (AU) (B2U)
                 (B2G) (B1U) (B3U) (B3G) (B1U) (AG) (B2G) (B3U)
                 (B3G) (AU) (AG) (B1U) (B1G) (B3U) (B3G) (B2U)
                 (AG) (B1G) (B1U) (B1U) (B3U) (B3G) (B2U) (B1G)
                 (AU) (B3U) (AG) (B1U) (B3G) (B2U) (B3U) (B1U)
                 (B2U) (B1G) (B3G) (AG) (B2G) (B1U) (B3G) (B3U)
                 (B2U) (AG) (B1G) (B3G) (B3U) (B1U) (B2G) (B2U)
                 (B1G) (B1U) (B3G) (B3U) (AG) (B3G) (AU) (B1U)
                 (B2G) (B2U) (AG) (B1U) (AG) (AU) (B3U) (B1G) (B2G)
                 (B1G) (B2U) (B3G) (AG) (B3U) (B2U) (B2U) (AG)
                 (B1U) (B2G) (B1G) (B2U) (AU) (AG) (B3U) (B3G)
                 (B1U) (AG) (B2U) (AG) (B2G) (AU) (B3G) (B1G) (B3G)
                 (B2U) (B2U) (B1U) (B2G) (AU) (AG) (B3U) (B1G)
                 (B3U) (AG) (B3G) (B2U) (AU) (B1G) (B2G) (AG) (B2U)
                 (AU) (B1U) (B3U) (B2U) (B1U) (B3G) (B2G) (AG)
                 (B1G) (B1U) (AU) (B2U) (B3U) (B3G) (AU) (B1U)
                 (AU) (B1G) (AG) (B3G) (B3U) (B2G) (B1G) (B3U)
                 (B2G) (B2U) (AU) (B1G) (B3G) (AG) (AG) (B3G) (B2G)
                 (B1U) (AG) (AU) (B1U) (B2U) (B1G) (B2U) (B3U)
                 (B2G) (AG) (B1U) (B3U) (B2U) (B3G) (B1U) (AG)
                 (B2U) (B1G) (B3G) (B1U) (AG) (AU) (B2G) (B1U)
                 (B3G) (B3G) (AG) (B1U) (B2U) (AU) (B3G) (B1G)
                 (B1U) (B3G) (B3U) (B3U) (B2U) (B2G) (B1U) (B3G)
                 (AU) (AG) (B1G) (B3G) (B2G) (AU) (B2U) (AG) (B3U)
                 (B2U) (B1U) (B3U) (B2G) (B3G) (AG) (AU) (B1U)
                 (B1G) (AG) (B2G) (B1U) (AU) (AG) (B1G) (B3G) (B2G)
                 (B2U) (B1U) (B1G) (B2U) (AU) (B3U) (AU) (B2G)
                 (AU) (B1G) (B3G) (B2U) (B1U) (B3U) (B1U) (B2G)
                 (AG) (B3G) (B3U) (B2G) (B1G) (B1U) (B2U) (B2U)
                 (B3U) (B3G) (AG) (B1G) (B2U) (B2G) (AG) (AU) (B3G)
                 (B1U) (AU) (B3G) (B2G) (B2U) (AG) (B2G) (AG) (AU)
                 (B1U) (B3G) (B2G) (B2U) (AU) (B1G) (B1U) (AG)
                 (AG) (B2U) (AU) (B2G) (B3G) (B2U) (B1U) (B3G)
                 (B3U) (AG) (B1U) (B3G) (B2G) (AU) (AG) (B1U) (B1U)
                 (B3G) (B3G) (B2U) (B2U) (AG) (B3U) (AU) (B2U)
                 (B3G) (B1U) (AG) (B3G) (B1U) (B2G) (AU) (B2U)
                 (AG) (B3G) (B1U) (B1G) (B2G) (B2U) (AG) (B1U)
                 (B3U) (B3G) (B2U) (AG) (B1U) (B2U) (AG) (B3G)
                 (B1U) (B1U) (B3G) (B3G) (AG) (B2U) (B1U) (AG)
                 (B2U) (AG) (B2U) (B2G) (B3G) (B1U) (B3G) (B1G)
                 (AU) (B2U) (B1U) (AG) (B3U) (B1U) (B3G) (B1U)
                 (B3G) (B1G) (B3U) (AG) (B2G) (B3U) (B3G) (B1U)
                 (AU) (B1G) (B2G) (B2U) (B1U) (B1U) (AU) (B3G)
                 (B1G) (B2G) (AU) (B3U) (B1G) (B2G) (AG) (B2U)
                 (B3U) (B1U) (AG) (B3G) (B1G) (B3U) (B3G) (AU)
                 (AG) (B2U) (B1U) (B2G) (B1G) (B3G) (B2U) (B1G)
                 (B2U) (AG) (B1U) (B3G) (AG) (B2U) (AU) (B3U) (B2G)
                 (B3G) (B3U) (AG) (AU) (B2U) (B2G) (B3U) (B1U)
                 (B2U) (B1G) (AG) (AG) (B2U) (B3G) (B1U) (AG) (B1G)
                 (B2U) (B3U) (AU) (B1U) (B3G) (AG) (B1G) (B3U)
                 (B2U) (B1U) (AG) (B3G) (B1U) (AU) (B2G) (B2G)
                 (B2U) (B1U) (AU) (AG) (AU) (B3G) (B2U) (AG) (B1U)
                 (B2G) (B2G) (B1U) (B3G) (AG) (B2U) (B3G) (AU)
                 (B1G) (AG) (B1U) (B2U) (B2G) (B3U) (B3G) (B1U)
                 (B2U) (B2G) (AU) (B3G) (B3G) (AG) (B2U) (B2U)
                 (AG) (AU) (AG) (B1U) (B3G) (B1U) (B2G) (B2U) (B3G)
                 (AG) (B1U) (B2U) (B3G) (B1U) (B2G) (AU) (AG) (B3G)
                 (B3G) (B1U) (B1U) (AG) (AU) (B2U) (B2G) (B1U)
                 (B3G) (B2U) (AG) (B3G) (B1U) (AG) (B2G) (B2U)
                 (AU) (B3G) (AG) (AG) (B2U) (B1U) (B2U) (B3G) (B1U)
                 (AG) (AG) (B2U) (B2U) (AG) (B1U) (B3G) (B1U) (B2U)
                 (B3G) (B1U) (AG) (B2U) (B3G) (B1U) (B2U) (AG)
                 (B2U) (B3G) (AG) (B1U) (B1U) (B3G) (AG) (B2U)
                 (B3G) (B1U) (AG) (B2U) (B3G) (AG) (B1U) (B3G)
                 (B1U) (B2U) (B3G) (B2U) (AG) (B1U) (B3G) (B3G)
                 (B1U) (B1U) (B3G) (B1U) (B3G) (B1U) (B3G) (AG)
                 (B1U) (B3G) (B1U) (B3G) (B3G) (B1U) (B2U) (B1U)
                 (B3G) (B3G) (B1U) (B1U) (B3G) (B1U) (B3G) (AG)
                 (B2U) (AG) (B1U) (B3G) (B2U) (AG) (B2U) (B1U)
                 (AG) (B2U) (AG) (B2U) (AG) (B3G) (B2U) (AG) (B1U)
                 (AG) (B2U) (B3G) (B1U) (B1U) (B2U) (AG) (B3G)
                 (AG) (B2U) (B1U) (AG) (B3G) (B1U) (B3G) (B2U)
                 (B2U) (B1U) (AG) (B3G) (B3G) (B1U) (B1U) (AG)
                 (B3G) (B1U) (B3G) (B1U) (B3G) (B1U)
 The electronic state of the initial guess is 1-AG.
 Initial guess <Sx>= 0.0000 <Sy>= 0.0000 <Sz>= 0.0000 <S**2>=-0.0000 S=-0.0000
 Leave Link  401 at Mon Feb  3 17:08:17 2020, MaxMem=  6710886400 cpu:             125.3 elap:               7.9
 (Enter /opt/ohpc/pub/libs/gaussian/g16-A.03/sandybridge/g16/l502.exe)
 Integral symmetry usage will be decided dynamically.
 UHF open shell SCF:
 Using DIIS extrapolation, IDIIS=  1040.
 NGot=  6710886400 LenX=  6703712298 LenY=  6700160958
 Requested convergence on RMS density matrix=1.00D-08 within 128 cycles.
 Requested convergence on MAX density matrix=1.00D-06.
 Requested convergence on             energy=1.00D-06.
 No special actions if energy rises.
 Fock matrices will be formed incrementally for  20 cycles.
 Integral accuracy reduced to 1.0D-05 until final iterations.

 Cycle   1  Pass 0  IDiag  1:
 FoFJK:  IHMeth= 1 ICntrl=       0 DoSepK=T KAlg= 0 I1Cent=           0 FoldK=F
 IRaf=         1 NMat=       1 IRICut=       1 DoRegI=T DoRafI=F ISym2E= 1 IDoP0=0 IntGTp=1.
 FoFCou: FMM=F IPFlag=           0 FMFlag=      100000 FMFlg1=        2000
         NFxFlg=           0 DoJE=T BraDBF=F KetDBF=F FulRan=T
         wScrn=  0.000000 ICntrl=       500 IOpCl=  0 I1Cent=           0 NGrid=           0
         NMat0=    1 NMatS0=      1 NMatT0=    0 NMatD0=    1 NMtDS0=    0 NMtDT0=    0
 Petite list used in FoFCou.
 E= -1843.06537463895    
 DIIS: error= 2.02D-02 at cycle   1 NSaved=   1.
 NSaved= 1 IEnMin= 1 EnMin= -1843.06537463895     IErMin= 1 ErrMin= 2.02D-02
 ErrMax= 2.02D-02  0.00D+00 EMaxC= 1.00D-01 BMatC= 2.51D+00 BMatP= 2.51D+00
 IDIUse=3 WtCom= 7.98D-01 WtEn= 2.02D-01
 Coeff-Com:  0.100D+01
 Coeff-En:   0.100D+01
 Coeff:      0.100D+01
 Gap=     0.181 Goal=   None    Shift=    0.000
 Gap=     0.181 Goal=   None    Shift=    0.000
 GapD=    0.181 DampG=1.000 DampE=0.500 DampFc=0.5000 IDamp=-1.
 Damping current iteration by 5.00D-01
 RMSDP=2.98D+02 MaxDP=5.45D+04              OVMax= 9.94D-01

 Problem detected with inexpensive integrals.
 Switching to full accuracy and repeating last cycle.
 Cycle   2  Pass 1  IDiag  1:
 E= -1843.06586126813     Delta-E=       -0.000486629178 Rises=F Damp=F
 DIIS: error= 2.02D-02 at cycle   1 NSaved=   1.
 NSaved= 1 IEnMin= 1 EnMin= -1843.06586126813     IErMin= 1 ErrMin= 2.02D-02
 ErrMax= 2.02D-02  0.00D+00 EMaxC= 1.00D-01 BMatC= 2.45D+00 BMatP= 2.45D+00
 IDIUse=3 WtCom= 7.98D-01 WtEn= 2.02D-01
 Coeff-Com:  0.100D+01
 Coeff-En:   0.100D+01
 Coeff:      0.100D+01
 Gap=     0.181 Goal=   None    Shift=    0.000
 Gap=     0.181 Goal=   None    Shift=    0.000
 GapD=    0.181 DampG=1.000 DampE=0.500 DampFc=0.5000 IDamp=-1.
 Damping current iteration by 5.00D-01
 RMSDP=1.03D-03 MaxDP=4.40D-02 DE=-4.87D-04 OVMax= 1.17D-01

 Cycle   3  Pass 1  IDiag  1:
 RMSU=  5.01D-04    CP:  9.72D-01
 E= -1843.40159584926     Delta-E=       -0.335734581131 Rises=F Damp=T
 DIIS: error= 6.13D-03 at cycle   2 NSaved=   2.
 NSaved= 2 IEnMin= 2 EnMin= -1843.40159584926     IErMin= 2 ErrMin= 6.13D-03
 ErrMax= 6.13D-03  0.00D+00 EMaxC= 1.00D-01 BMatC= 1.68D-01 BMatP= 2.45D+00
 IDIUse=3 WtCom= 9.39D-01 WtEn= 6.13D-02
 Coeff-Com: -0.160D+00 0.116D+01
 Coeff-En:   0.000D+00 0.100D+01
 Coeff:     -0.150D+00 0.115D+01
 Gap=     0.189 Goal=   None    Shift=    0.000
 Gap=     0.189 Goal=   None    Shift=    0.000
 GapD=    0.189 DampG=1.000 DampE=1.000 DampFc=1.0000 IDamp=-1.
 RMSDP=3.79D-04 MaxDP=3.09D-02 DE=-3.36D-01 OVMax= 6.28D-02

 Cycle   4  Pass 1  IDiag  1:
 RMSU=  3.45D-04    CP:  9.41D-01  1.15D+00
 E= -1843.68658831774     Delta-E=       -0.284992468480 Rises=F Damp=F
 DIIS: error= 5.83D-03 at cycle   3 NSaved=   3.
 NSaved= 3 IEnMin= 3 EnMin= -1843.68658831774     IErMin= 3 ErrMin= 5.83D-03
 ErrMax= 5.83D-03  0.00D+00 EMaxC= 1.00D-01 BMatC= 7.11D-02 BMatP= 1.68D-01
 IDIUse=3 WtCom= 9.42D-01 WtEn= 5.83D-02
 Coeff-Com: -0.104D+00 0.502D+00 0.602D+00
 Coeff-En:   0.000D+00 0.000D+00 0.100D+01
 Coeff:     -0.981D-01 0.473D+00 0.625D+00
 Gap=     0.186 Goal=   None    Shift=    0.000
 Gap=     0.186 Goal=   None    Shift=    0.000
 RMSDP=1.17D-04 MaxDP=1.21D-02 DE=-2.85D-01 OVMax= 3.90D-02

 Cycle   5  Pass 1  IDiag  1:
 RMSU=  1.06D-04    CP:  9.45D-01  1.13D+00  8.71D-01
 E= -1843.69768961794     Delta-E=       -0.011101300194 Rises=F Damp=F
 DIIS: error= 4.10D-03 at cycle   4 NSaved=   4.
 NSaved= 4 IEnMin= 4 EnMin= -1843.69768961794     IErMin= 4 ErrMin= 4.10D-03
 ErrMax= 4.10D-03  0.00D+00 EMaxC= 1.00D-01 BMatC= 2.59D-02 BMatP= 7.11D-02
 IDIUse=3 WtCom= 9.59D-01 WtEn= 4.10D-02
 Coeff-Com: -0.351D-01 0.134D+00 0.391D+00 0.510D+00
 Coeff-En:   0.000D+00 0.000D+00 0.299D+00 0.701D+00
 Coeff:     -0.336D-01 0.129D+00 0.387D+00 0.517D+00
 Gap=     0.185 Goal=   None    Shift=    0.000
 Gap=     0.185 Goal=   None    Shift=    0.000
 RMSDP=4.59D-05 MaxDP=3.93D-03 DE=-1.11D-02 OVMax= 1.56D-02

 Cycle   6  Pass 1  IDiag  1:
 RMSU=  4.02D-05    CP:  9.46D-01  1.14D+00  8.76D-01  7.95D-01
 E= -1843.70435028403     Delta-E=       -0.006660666093 Rises=F Damp=F
 DIIS: error= 5.91D-04 at cycle   5 NSaved=   5.
 NSaved= 5 IEnMin= 5 EnMin= -1843.70435028403     IErMin= 5 ErrMin= 5.91D-04
 ErrMax= 5.91D-04  0.00D+00 EMaxC= 1.00D-01 BMatC= 7.04D-04 BMatP= 2.59D-02
 IDIUse=3 WtCom= 9.94D-01 WtEn= 5.91D-03
 Coeff-Com: -0.961D-02 0.340D-01 0.138D+00 0.233D+00 0.604D+00
 Coeff-En:   0.000D+00 0.000D+00 0.000D+00 0.000D+00 0.100D+01
 Coeff:     -0.955D-02 0.337D-01 0.138D+00 0.231D+00 0.607D+00
 Gap=     0.185 Goal=   None    Shift=    0.000
 Gap=     0.185 Goal=   None    Shift=    0.000
 RMSDP=1.32D-05 MaxDP=9.67D-04 DE=-6.66D-03 OVMax= 3.64D-03

 Cycle   7  Pass 1  IDiag  1:
 RMSU=  1.11D-05    CP:  9.47D-01  1.13D+00  8.89D-01  8.45D-01  1.02D+00
 E= -1843.70452033021     Delta-E=       -0.000170046181 Rises=F Damp=F
 DIIS: error= 2.01D-04 at cycle   6 NSaved=   6.
 NSaved= 6 IEnMin= 6 EnMin= -1843.70452033021     IErMin= 6 ErrMin= 2.01D-04
 ErrMax= 2.01D-04  0.00D+00 EMaxC= 1.00D-01 BMatC= 9.95D-05 BMatP= 7.04D-04
 IDIUse=3 WtCom= 9.98D-01 WtEn= 2.01D-03
 Coeff-Com: -0.788D-03 0.218D-02 0.262D-01 0.602D-01 0.313D+00 0.599D+00
 Coeff-En:   0.000D+00 0.000D+00 0.000D+00 0.000D+00 0.123D-01 0.988D+00
 Coeff:     -0.786D-03 0.218D-02 0.261D-01 0.601D-01 0.313D+00 0.600D+00
 Gap=     0.185 Goal=   None    Shift=    0.000
 Gap=     0.185 Goal=   None    Shift=    0.000
 RMSDP=4.91D-06 MaxDP=3.90D-04 DE=-1.70D-04 OVMax= 1.53D-03

 Cycle   8  Pass 1  IDiag  1:
 RMSU=  3.55D-06    CP:  9.47D-01  1.13D+00  8.92D-01  8.62D-01  1.08D+00
                    CP:  1.06D+00
 E= -1843.70455006500     Delta-E=       -0.000029734791 Rises=F Damp=F
 DIIS: error= 7.22D-05 at cycle   7 NSaved=   7.
 NSaved= 7 IEnMin= 7 EnMin= -1843.70455006500     IErMin= 7 ErrMin= 7.22D-05
 ErrMax= 7.22D-05  0.00D+00 EMaxC= 1.00D-01 BMatC= 4.69D-06 BMatP= 9.95D-05
 IDIUse=1 WtCom= 1.00D+00 WtEn= 0.00D+00
 Coeff-Com:  0.112D-02-0.410D-02-0.117D-01-0.159D-01 0.278D-02 0.141D+00
 Coeff-Com:  0.887D+00
 Coeff:      0.112D-02-0.410D-02-0.117D-01-0.159D-01 0.278D-02 0.141D+00
 Coeff:      0.887D+00
 Gap=     0.185 Goal=   None    Shift=    0.000
 Gap=     0.185 Goal=   None    Shift=    0.000
 RMSDP=3.07D-06 MaxDP=2.79D-04 DE=-2.97D-05 OVMax= 7.52D-04

 Cycle   9  Pass 1  IDiag  1:
 RMSU=  1.26D-06    CP:  9.47D-01  1.13D+00  8.93D-01  8.76D-01  1.12D+00
                    CP:  1.18D+00  1.15D+00
 E= -1843.70455309318     Delta-E=       -0.000003028178 Rises=F Damp=F
 DIIS: error= 3.02D-05 at cycle   8 NSaved=   8.
 NSaved= 8 IEnMin= 8 EnMin= -1843.70455309318     IErMin= 8 ErrMin= 3.02D-05
 ErrMax= 3.02D-05  0.00D+00 EMaxC= 1.00D-01 BMatC= 1.84D-06 BMatP= 4.69D-06
 IDIUse=1 WtCom= 1.00D+00 WtEn= 0.00D+00
 Coeff-Com:  0.676D-03-0.242D-02-0.100D-01-0.177D-01-0.449D-01-0.161D-01
 Coeff-Com:  0.461D+00 0.629D+00
 Coeff:      0.676D-03-0.242D-02-0.100D-01-0.177D-01-0.449D-01-0.161D-01
 Coeff:      0.461D+00 0.629D+00
 Gap=     0.185 Goal=   None    Shift=    0.000
 Gap=     0.185 Goal=   None    Shift=    0.000
 RMSDP=8.44D-07 MaxDP=6.63D-05 DE=-3.03D-06 OVMax= 3.32D-04

 Cycle  10  Pass 1  IDiag  1:
 RMSU=  4.18D-07    CP:  9.47D-01  1.13D+00  8.93D-01  8.78D-01  1.13D+00
                    CP:  1.21D+00  1.24D+00  1.10D+00
 E= -1843.70455381488     Delta-E=       -0.000000721704 Rises=F Damp=F
 DIIS: error= 1.04D-05 at cycle   9 NSaved=   9.
 NSaved= 9 IEnMin= 9 EnMin= -1843.70455381488     IErMin= 9 ErrMin= 1.04D-05
 ErrMax= 1.04D-05  0.00D+00 EMaxC= 1.00D-01 BMatC= 1.11D-07 BMatP= 1.84D-06
 IDIUse=1 WtCom= 1.00D+00 WtEn= 0.00D+00
 Coeff-Com:  0.659D-05-0.701D-04-0.971D-03-0.233D-02-0.112D-01-0.215D-01
 Coeff-Com: -0.575D-02 0.169D+00 0.873D+00
 Coeff:      0.659D-05-0.701D-04-0.971D-03-0.233D-02-0.112D-01-0.215D-01
 Coeff:     -0.575D-02 0.169D+00 0.873D+00
 Gap=     0.185 Goal=   None    Shift=    0.000
 Gap=     0.185 Goal=   None    Shift=    0.000
 RMSDP=2.39D-07 MaxDP=1.17D-05 DE=-7.22D-07 OVMax= 1.24D-04

 Cycle  11  Pass 1  IDiag  1:
 RMSU=  2.02D-07    CP:  9.47D-01  1.13D+00  8.93D-01  8.78D-01  1.13D+00
                    CP:  1.22D+00  1.26D+00  1.18D+00  1.09D+00
 E= -1843.70455388662     Delta-E=       -0.000000071737 Rises=F Damp=F
 DIIS: error= 3.32D-06 at cycle  10 NSaved=  10.
 NSaved=10 IEnMin=10 EnMin= -1843.70455388662     IErMin=10 ErrMin= 3.32D-06
 ErrMax= 3.32D-06  0.00D+00 EMaxC= 1.00D-01 BMatC= 3.17D-08 BMatP= 1.11D-07
 IDIUse=1 WtCom= 1.00D+00 WtEn= 0.00D+00
 Coeff-Com: -0.990D-04 0.324D-03 0.959D-03 0.144D-02 0.997D-03-0.756D-02
 Coeff-Com: -0.686D-01-0.621D-02 0.426D+00 0.653D+00
 Coeff:     -0.990D-04 0.324D-03 0.959D-03 0.144D-02 0.997D-03-0.756D-02
 Coeff:     -0.686D-01-0.621D-02 0.426D+00 0.653D+00
 Gap=     0.185 Goal=   None    Shift=    0.000
 Gap=     0.185 Goal=   None    Shift=    0.000
 RMSDP=1.07D-07 MaxDP=8.60D-06 DE=-7.17D-08 OVMax= 4.07D-05

 Cycle  12  Pass 1  IDiag  1:
 RMSU=  6.50D-08    CP:  9.47D-01  1.13D+00  8.93D-01  8.78D-01  1.13D+00
                    CP:  1.21D+00  1.26D+00  1.19D+00  1.18D+00  1.13D+00
 E= -1843.70455389856     Delta-E=       -0.000000011937 Rises=F Damp=F
 DIIS: error= 1.24D-06 at cycle  11 NSaved=  11.
 NSaved=11 IEnMin=11 EnMin= -1843.70455389856     IErMin=11 ErrMin= 1.24D-06
 ErrMax= 1.24D-06  0.00D+00 EMaxC= 1.00D-01 BMatC= 2.77D-09 BMatP= 3.17D-08
 IDIUse=1 WtCom= 1.00D+00 WtEn= 0.00D+00
 Coeff-Com: -0.393D-04 0.134D-03 0.490D-03 0.879D-03 0.177D-02 0.136D-03
 Coeff-Com: -0.258D-01-0.257D-01 0.400D-01 0.242D+00 0.766D+00
 Coeff:     -0.393D-04 0.134D-03 0.490D-03 0.879D-03 0.177D-02 0.136D-03
 Coeff:     -0.258D-01-0.257D-01 0.400D-01 0.242D+00 0.766D+00
 Gap=     0.185 Goal=   None    Shift=    0.000
 Gap=     0.185 Goal=   None    Shift=    0.000
 RMSDP=5.40D-08 MaxDP=4.14D-06 DE=-1.19D-08 OVMax= 1.68D-05

 Cycle  13  Pass 1  IDiag  1:
 RMSU=  3.07D-08    CP:  9.47D-01  1.13D+00  8.93D-01  8.78D-01  1.13D+00
                    CP:  1.21D+00  1.26D+00  1.20D+00  1.20D+00  1.19D+00
                    CP:  1.22D+00
 E= -1843.70455390083     Delta-E=       -0.000000002275 Rises=F Damp=F
 DIIS: error= 6.61D-07 at cycle  12 NSaved=  12.
 NSaved=12 IEnMin=12 EnMin= -1843.70455390083     IErMin=12 ErrMin= 6.61D-07
 ErrMax= 6.61D-07  0.00D+00 EMaxC= 1.00D-01 BMatC= 3.65D-10 BMatP= 2.77D-09
 IDIUse=1 WtCom= 1.00D+00 WtEn= 0.00D+00
 Coeff-Com: -0.296D-06 0.291D-05 0.427D-04 0.114D-03 0.424D-03 0.941D-03
 Coeff-Com: -0.167D-03-0.734D-02-0.391D-01-0.648D-02 0.234D+00 0.817D+00
 Coeff:     -0.296D-06 0.291D-05 0.427D-04 0.114D-03 0.424D-03 0.941D-03
 Coeff:     -0.167D-03-0.734D-02-0.391D-01-0.648D-02 0.234D+00 0.817D+00
 Gap=     0.185 Goal=   None    Shift=    0.000
 Gap=     0.185 Goal=   None    Shift=    0.000
 RMSDP=2.13D-08 MaxDP=1.21D-06 DE=-2.27D-09 OVMax= 8.53D-06

 Cycle  14  Pass 1  IDiag  1:
 RMSU=  1.07D-08    CP:  9.47D-01  1.13D+00  8.93D-01  8.78D-01  1.13D+00
                    CP:  1.21D+00  1.26D+00  1.20D+00  1.21D+00  1.22D+00
                    CP:  1.36D+00  1.24D+00
 E= -1843.70455390103     Delta-E=       -0.000000000196 Rises=F Damp=F
 DIIS: error= 3.17D-07 at cycle  13 NSaved=  13.
 NSaved=13 IEnMin=13 EnMin= -1843.70455390103     IErMin=13 ErrMin= 3.17D-07
 ErrMax= 3.17D-07  0.00D+00 EMaxC= 1.00D-01 BMatC= 1.10D-10 BMatP= 3.65D-10
 IDIUse=1 WtCom= 1.00D+00 WtEn= 0.00D+00
 Coeff-Com:  0.976D-05-0.320D-04-0.105D-03-0.172D-03-0.245D-03 0.492D-03
 Coeff-Com:  0.681D-02 0.325D-02-0.291D-01-0.638D-01-0.836D-01 0.367D+00
 Coeff-Com:  0.799D+00
 Coeff:      0.976D-05-0.320D-04-0.105D-03-0.172D-03-0.245D-03 0.492D-03
 Coeff:      0.681D-02 0.325D-02-0.291D-01-0.638D-01-0.836D-01 0.367D+00
 Coeff:      0.799D+00
 Gap=     0.185 Goal=   None    Shift=    0.000
 Gap=     0.185 Goal=   None    Shift=    0.000
 RMSDP=9.84D-09 MaxDP=5.77D-07 DE=-1.96D-10 OVMax= 5.77D-06

 SCF Done:  E(ULC-wHPBE) =  -1843.70455390     A.U. after   14 cycles
            NFock= 14  Conv=0.98D-08     -V/T= 2.0052
 <Sx>= 0.0000 <Sy>= 0.0000 <Sz>= 0.0000 <S**2>=-0.0000 S=-0.0000
 <L.S>= 0.000000000000E+00
 KE= 1.834186034678D+03 PE=-1.375860502501D+04 EE= 5.340982403170D+03
 Annihilation of the first spin contaminant:
 S**2 before annihilation    -0.0000,   after     0.0000
 Leave Link  502 at Mon Feb  3 17:34:41 2020, MaxMem=  6710886400 cpu:           25288.0 elap:            1584.1
 (Enter /opt/ohpc/pub/libs/gaussian/g16-A.03/sandybridge/g16/l801.exe)
 DoSCS=F DFT=T ScalE2(SS,OS)=  1.000000  1.000000
 ExpMin= 9.52D-02 ExpMax= 1.36D+04 ExpMxC= 4.63D+02 IAcc=3 IRadAn=         5 AccDes= 0.00D+00
 HarFok:  IExCor=  205 AccDes= 0.00D+00 IRadAn=         5 IDoV=-2 UseB2=F ITyADJ=14
 ICtDFT= 12500011 ScaDFX=  1.000000  1.000000  1.000000  1.000000
 GSVD:  LWork=       -2688 too small for GESVD, short by       12240 words or       12240 for optimal perf.
 Largest valence mixing into a core orbital is  5.42D-05
 Largest core mixing into a valence orbital is  1.82D-05
 Largest valence mixing into a core orbital is  5.42D-05
 Largest core mixing into a valence orbital is  1.82D-05
 Range of M.O.s used for correlation:    49  1643
 NBasis=  1644 NAE=   157 NBE=   157 NFC=    48 NFV=     0
 NROrb=   1595 NOA=   109 NOB=   109 NVA=  1486 NVB=  1486

 **** Warning!!: The largest alpha MO coefficient is  0.11159974D+03


 **** Warning!!: The largest beta MO coefficient is  0.11159974D+03

 Leave Link  801 at Mon Feb  3 17:34:42 2020, MaxMem=  6710886400 cpu:              16.3 elap:               1.1
 (Enter /opt/ohpc/pub/libs/gaussian/g16-A.03/sandybridge/g16/l914.exe)
 UHF ground state
 Two-electron integrals replicated using symmetry.
 MDV=  6710886400 DFT=T DoStab=F Mixed=T DoRPA=T DoScal=F NonHer=T
 Making orbital integer symmetry assigments:
 Orbital symmetries:
 Alpha Orbitals:
       Occupied  (AG) (B1U) (B2U) (AG) (B3G) (B1U) (B3G) (B2U)
                 (B1U) (AG) (B2U) (AG) (B3G) (B1U) (B2U) (AG) (B2U)
                 (AG) (B3G) (B1U) (B3G) (B1U) (B3G) (B1U) (B2U)
                 (AG) (B3G) (B1U) (B2U) (AG) (B1U) (B3G) (B2U)
                 (AG) (B2U) (AG) (B3G) (B1U) (B2U) (AG) (B3G) (B1U)
                 (B1U) (AG) (B3G) (B2U) (B1U) (AG) (AG) (B2U) (AG)
                 (B2U) (AG) (B1U) (B2U) (AG) (B2U) (AG) (B3G) (B1U)
                 (B3G) (AG) (B1U) (B2U) (B3G) (B1U) (AG) (B3G)
                 (B1U) (B2U) (B1U) (B3G) (B2U) (AG) (AG) (B2U)
                 (B1U) (B3G) (AG) (B2U) (AG) (B3G) (B2U) (AG) (B1U)
                 (B2U) (AG) (B1U) (B3G) (B2U) (AG) (B2U) (AG) (B1U)
                 (B2U) (B2U) (AG) (B1U) (B3G) (B3G) (AG) (B1U)
                 (B1U) (AG) (B3G) (B2U) (B3U) (B3G) (B2U) (B3G)
                 (AG) (B1G) (B1U) (B3U) (B1U) (B3G) (AG) (B3G)
                 (B1U) (B1G) (AG) (B2U) (B2U) (B3U) (B2G) (B1U)
                 (AG) (B3G) (B1G) (B1U) (B2U) (B2U) (B3U) (AG)
                 (B3G) (B1U) (B2U) (AG) (AU) (B1G) (B2U) (B2G)
                 (B3G) (B3U) (AG) (AU) (B2G) (B3U) (AU) (B1G) (B2G)
                 (B3U) (AU) (B2G) (B1G) (AU) (B2G)
       Virtual   (B1G) (B3U) (AU) (B3U) (B1G) (B2G) (B3U) (AU)
                 (B1G) (B3U) (B2G) (B1G) (B3U) (B1G) (B2G) (B1U)
                 (B3G) (AG) (AU) (B2U) (AG) (B1U) (B2U) (B3G) (AG)
                 (B2U) (B1U) (AG) (B2G) (B3G) (B2U) (B1U) (AG)
                 (AG) (B3G) (B2U) (B1U) (AG) (AU) (B2U) (B2U) (AG)
                 (B1U) (B3U) (AG) (B2G) (B3G) (AU) (B2G) (B1U)
                 (B2U) (B2U) (AU) (B3G) (AG) (B1U) (B3G) (B1U)
                 (AG) (B3G) (B3G) (B3U) (B1U) (AG) (B1G) (B2U)
                 (B1U) (B2U) (B3U) (AG) (B1G) (AG) (B3G) (B1U)
                 (B2U) (B2G) (AG) (B3U) (B2G) (B3G) (B2U) (AG)
                 (B1U) (B1G) (B1U) (AU) (B3G) (B2U) (B1U) (B3U)
                 (AG) (B3G) (B2U) (B2G) (B2U) (B3U) (B1U) (AG)
                 (AU) (B3G) (B1U) (B1G) (B1U) (B3G) (B2G) (AU)
                 (AG) (B2U) (B3G) (B2G) (AG) (B2U) (B2U) (AG) (B1G)
                 (B3U) (B2U) (B1U) (B2U) (AG) (B3U) (B1U) (B1G)
                 (B3G) (AU) (B2U) (AG) (B3U) (B2G) (B1G) (AG) (B2U)
                 (B2U) (B2G) (AG) (B1G) (B3G) (AG) (B1U) (B2U)
                 (B3U) (B3G) (B1U) (AG) (B3U) (AU) (B1U) (AG) (B3G)
                 (B3G) (B1U) (AG) (B2U) (AG) (B1G) (B3G) (B2G)
                 (B1U) (B2U) (B3G) (B1U) (B2U) (B3G) (AU) (B3U)
                 (B1U) (B2U) (AG) (AG) (B1U) (B1G) (B3G) (B2U)
                 (B1U) (B3G) (AG) (B2G) (B2U) (AG) (AG) (B3G) (B1U)
                 (B2U) (B3U) (AU) (B1U) (AU) (B3G) (B2G) (B3U)
                 (B1U) (B1G) (B2G) (AG) (B2U) (B3G) (B1G) (B3U)
                 (B1U) (AG) (B2U) (B3G) (B1U) (B1U) (AU) (B3G)
                 (B2U) (B1U) (B3G) (AG) (B3G) (B2U) (B3U) (AG)
                 (B2G) (AU) (B1U) (B1U) (B3G) (B2G) (B1U) (B1G)
                 (B2U) (B3G) (AG) (B2U) (AG) (B3G) (AG) (B1G) (B1U)
                 (B2U) (B3U) (B2U) (AG) (B1U) (AG) (B3G) (B3G)
                 (AU) (B1U) (B2U) (B3U) (B1G) (B1U) (B3G) (AG)
                 (B2G) (B1U) (B3G) (B2U) (B3G) (AG) (B2U) (B3U)
                 (B1U) (B1G) (B3G) (B2G) (B1U) (B1U) (B3G) (B3U)
                 (B1U) (B2U) (AG) (B1G) (B2U) (AG) (B3G) (B1U)
                 (AG) (B3G) (AU) (B3G) (B1U) (B2U) (AG) (B2U) (B1U)
                 (AG) (B1U) (B3G) (AG) (B1G) (B3G) (B1U) (B3U)
                 (B2U) (B3G) (B1U) (B2U) (B2G) (AU) (AU) (B3G)
                 (B3U) (B2G) (B2U) (AG) (B3G) (B1U) (AG) (AU) (B1G)
                 (B2U) (AG) (AG) (B1U) (B2U) (B3U) (B1U) (AG) (B2G)
                 (B2U) (B3G) (AG) (AU) (B3G) (B1G) (AG) (B1U) (B2U)
                 (B1G) (B1U) (AG) (B2G) (B2U) (B3G) (AG) (AG) (B1U)
                 (B3U) (B2U) (B3G) (B2U) (B1U) (B2U) (AG) (B2U)
                 (AG) (AU) (B2U) (B3G) (B2G) (B3U) (B2U) (B1G)
                 (AG) (B3G) (B1U) (AG) (B1U) (B3G) (B2U) (B2U)
                 (AG) (B1G) (B3U) (AG) (B1U) (AU) (B3G) (B3G) (B1U)
                 (AG) (B1G) (B2G) (B3U) (B1U) (B2U) (B3G) (B2U)
                 (B2G) (AG) (B2U) (B3G) (AU) (AG) (B2U) (AU) (B1U)
                 (B3U) (AG) (B1G) (B1U) (B3G) (B2G) (B2U) (B1U)
                 (B3G) (AU) (B1U) (AG) (B2U) (B2U) (B1G) (B1U)
                 (AG) (B2G) (B3G) (AU) (AG) (B2G) (B3U) (AG) (B3G)
                 (B2U) (B3U) (B1U) (AG) (B3G) (B1U) (AU) (B2G)
                 (B1G) (B3G) (B3U) (B2U) (AG) (B1U) (B2G) (B1G)
                 (AU) (B3U) (B2U) (B3U) (AG) (AG) (B1G) (B3G) (B1G)
                 (B1U) (B2U) (AG) (B3G) (B3U) (B2U) (B1U) (B2U)
                 (B3G) (B2G) (B3U) (B1G) (AG) (B1U) (B2U) (B3G)
                 (B1U) (AG) (B3G) (AU) (B2G) (B1U) (AG) (B1G) (B2U)
                 (B2G) (AG) (AU) (B2U) (B1G) (B3G) (B2U) (B1U)
                 (B3U) (B1U) (AU) (AG) (B3G) (B3G) (B2G) (B1U)
                 (B3U) (B3G) (AG) (B2U) (B1U) (B1G) (B3G) (B1U)
                 (B3U) (B2U) (AG) (B3G) (B2G) (AU) (AG) (B1U) (B2U)
                 (B3U) (B3G) (B1U) (B1G) (B3G) (AU) (B2G) (B3U)
                 (B2U) (B1U) (B3G) (AG) (B1U) (B1U) (B1G) (B2U)
                 (B3G) (B2G) (AG) (B2U) (B1U) (AG) (B3U) (AU) (B3G)
                 (AG) (B1G) (B1U) (B2U) (AU) (B2G) (B2U) (AG) (B3G)
                 (B3U) (B2G) (AU) (B3G) (B3U) (AG) (B2U) (B1G)
                 (B2U) (B1U) (AG) (B1U) (AU) (B3G) (B1U) (AG) (B2U)
                 (B3U) (B1G) (B2U) (B2G) (AG) (B3G) (AG) (B2U)
                 (B1U) (B3G) (AG) (AU) (B2G) (B1U) (B2G) (AU) (B1U)
                 (B3G) (B2U) (AG) (B2G) (B3G) (B3U) (AG) (B2U)
                 (AU) (B1G) (AU) (AG) (B1U) (B2U) (B2G) (B1U) (B3G)
                 (AU) (B1G) (AG) (B2G) (B1U) (B2U) (B1G) (B3G)
                 (B3U) (B1G) (B3U) (B2G) (B1U) (AG) (B2U) (B3U)
                 (AG) (B2U) (B3G) (AU) (B1U) (B3G) (AG) (B1U) (B2G)
                 (B1G) (B3G) (B3U) (B1U) (B1U) (B3G) (B3G) (B2U)
                 (AU) (B1U) (B1G) (B2U) (B3U) (B3G) (AG) (B1G)
                 (B2G) (AU) (B2G) (B1U) (B3U) (B2G) (AU) (B3U)
                 (B1G) (B2G) (B3G) (AU) (B3U) (B2U) (B2G) (AU)
                 (AG) (B2U) (B1U) (AG) (AG) (B2G) (AU) (B1G) (B3U)
                 (B1G) (AG) (B2U) (B1U) (B3G) (B3U) (B2G) (B3G)
                 (B1G) (AU) (B2U) (B1U) (AG) (B2G) (B3G) (B1U)
                 (B3U) (B2U) (AG) (B1G) (AU) (B2U) (AG) (B2U) (AG)
                 (B3G) (B2U) (B2G) (B3U) (AG) (B1G) (B1U) (B2U)
                 (B3G) (B2U) (AG) (B2U) (B3G) (AG) (AU) (B1U) (B3G)
                 (B1U) (AG) (B2U) (B2U) (AG) (B1U) (B2U) (B3G)
                 (B2G) (AU) (B1U) (B2U) (B3G) (AG) (B1U) (B3G)
                 (B2G) (AG) (B1U) (B2U) (AU) (AG) (B1U) (B3G) (B2U)
                 (AG) (B2G) (B3G) (B3G) (B1U) (B2U) (AU) (AG) (B3G)
                 (B1U) (B1U) (B3G) (AG) (B2U) (B3U) (B1G) (B1U)
                 (AG) (B3G) (B2U) (AG) (B2U) (B1U) (AG) (B2U) (B2G)
                 (AU) (B3G) (B3U) (B1G) (B1U) (AG) (B2G) (B3U)
                 (B2U) (B3G) (B3U) (B1G) (AU) (B1U) (B2U) (AG)
                 (B2U) (AG) (B3G) (B1U) (B3U) (B3G) (B1G) (B2U)
                 (AG) (B1U) (B1G) (AG) (B2U) (B3G) (B1U) (B3U)
                 (B3G) (AG) (B1G) (B3G) (B3U) (B2U) (AG) (B2U)
                 (B1U) (B3G) (AG) (B2U) (B1U) (AG) (B1G) (AG) (B2U)
                 (B3G) (B1U) (B2U) (B1U) (AG) (B2G) (B3U) (B3G)
                 (AU) (B2U) (B2G) (B1G) (B3U) (B1U) (B3G) (B2U)
                 (AG) (B1U) (B3U) (B2G) (B3G) (B1G) (B2U) (B3U)
                 (AU) (B1G) (AG) (B3G) (B1G) (B1U) (AU) (B3U) (AG)
                 (B2G) (B2U) (AG) (B3U) (B2G) (B3U) (B3G) (B1G)
                 (B1U) (AG) (B3G) (B1U) (B2U) (AU) (B2U) (AG) (AU)
                 (B1G) (B1U) (B2G) (B3U) (B2G) (AU) (B1G) (B3U)
                 (B1U) (B3G) (AG) (B2U) (B3G) (B3U) (AG) (B1U)
                 (B1G) (B2U) (B3G) (B1U) (B1U) (B2U) (AG) (B3U)
                 (B1G) (B3G) (B2G) (B2U) (B1U) (AG) (B3G) (B1G)
                 (AU) (AG) (B3U) (B2U) (B2G) (AG) (AU) (AU) (B2G)
                 (AG) (B1G) (B1U) (B2G) (B3G) (B1U) (B2U) (B2U)
                 (B3G) (AG) (B1G) (B1U) (AU) (B2U) (B2G) (B3G)
                 (B3U) (B1U) (AG) (B3U) (B1G) (B2G) (B3G) (B3U)
                 (B1U) (AG) (AU) (B3G) (B2U) (AG) (B1U) (B1G) (B3U)
                 (B1U) (B3G) (B1G) (B3U) (AU) (B2U) (B1U) (B3G)
                 (B3U) (AG) (B1G) (B1U) (B3G) (B2U) (B2U) (B2G)
                 (AG) (B1U) (B3U) (B3G) (B1G) (B2U) (AG) (B3U)
                 (B2G) (B1U) (B3G) (B1G) (B2U) (B1U) (B3G) (B3U)
                 (B3G) (AG) (AU) (B1U) (B2G) (B2U) (B1U) (B3U)
                 (AU) (AG) (AG) (B1G) (B2G) (B1G) (B3G) (B3U) (B2U)
                 (AG) (B2U) (B2U) (B2G) (B1G) (AG) (B1U) (AU) (B3U)
                 (B3G) (AG) (B2U) (B1U) (AG) (B2U) (B2G) (B1G)
                 (AU) (AG) (B2U) (B3G) (B3G) (B2U) (B2G) (AU) (AG)
                 (B1U) (B3U) (B1G) (B3U) (AG) (B3G) (B2U) (B1G)
                 (AU) (B2G) (AG) (B2U) (AU) (B1U) (B3U) (B1U) (B2U)
                 (B2G) (B3G) (B1G) (B1U) (AG) (AU) (B3U) (B3G)
                 (B2U) (AU) (AU) (B1U) (B1G) (B3G) (B3U) (B2G)
                 (B1G) (B2G) (AG) (B3U) (AU) (B1G) (B3G) (B2U)
                 (AG) (B1U) (AG) (B3G) (B2G) (AU) (AG) (B1G) (B1U)
                 (B2U) (B3U) (B2U) (B3U) (B2G) (B1U) (B2U) (AG)
                 (B1U) (B3G) (B1G) (AG) (B3G) (B2U) (B1U) (AU)
                 (B2G) (B3G) (AG) (B1U) (B3G) (AU) (AG) (B1U) (B3G)
                 (B3G) (B1U) (B2U) (B1G) (B3U) (B2G) (B3G) (B3U)
                 (B1U) (B2U) (AU) (B2G) (AG) (B1G) (AU) (B3G) (B3U)
                 (AG) (B2U) (B1U) (B2G) (B2U) (B3U) (B3G) (B1U)
                 (AU) (B1G) (AG) (B2G) (AU) (B1U) (AG) (AG) (B2U)
                 (B2G) (B1G) (B1U) (AU) (B3G) (B1G) (B2U) (B3U)
                 (AU) (B2G) (AU) (B3G) (B1U) (B1G) (B2U) (B3U)
                 (B1U) (B2G) (AG) (B3U) (B3G) (B2G) (B1G) (B1U)
                 (B2U) (B3U) (AG) (B3G) (B2U) (B1G) (B2G) (AG)
                 (B2U) (B3G) (AU) (B2U) (B1U) (AU) (B2G) (AG) (B3G)
                 (B2G) (AG) (AU) (B1U) (B3G) (B2G) (AU) (B2U) (B1G)
                 (B1U) (AG) (B2U) (AG) (AU) (B2G) (B3G) (B1U) (B3U)
                 (B2U) (B3G) (AG) (B2G) (AU) (B1U) (B3G) (B1U)
                 (AG) (B1U) (B3G) (B3G) (B3U) (B2U) (B2U) (AG)
                 (AU) (B3G) (B2U) (B1U) (B2G) (AU) (AG) (B1U) (B3G)
                 (B2U) (B1G) (AG) (B3G) (B2G) (B1U) (B2U) (AG)
                 (B3U) (B1U) (B3G) (AG) (B1U) (B2U) (B3G) (B1U)
                 (B2U) (AG) (B1U) (B3G) (B3G) (AG) (B1U) (B2U)
                 (AG) (B2G) (B2U) (B1G) (B3G) (AG) (B2U) (AU) (B1U)
                 (B3G) (B1U) (B2U) (B3U) (AG) (B1U) (B1G) (B3G)
                 (B1U) (B3U) (B3G) (B2G) (B3U) (AG) (B3G) (B1U)
                 (B1G) (AU) (B2G) (B1U) (AU) (B2U) (B1G) (B2G)
                 (B1U) (AU) (B3G) (B3U) (B1G) (B2G) (AG) (B3U)
                 (B2U) (B1G) (B3U) (B1U) (AU) (B3G) (AG) (B3G)
                 (B2G) (B1U) (B2U) (B1G) (AG) (B3G) (B1G) (B2U)
                 (B3U) (AU) (B1U) (B3G) (AG) (B2U) (B2G) (B2U)
                 (AG) (B3U) (B3G) (B2G) (B3U) (AG) (AU) (B1G) (B1U)
                 (B2U) (B2U) (AG) (AG) (B2U) (B3G) (B1U) (B1G)
                 (AU) (B3U) (AG) (B2U) (B3G) (B1U) (B1G) (B3U)
                 (B2U) (AG) (B1U) (AU) (B3G) (AG) (B2G) (B2G) (B1U)
                 (AU) (B1U) (B2U) (AU) (AG) (B3G) (B2G) (B2U) (B2G)
                 (AG) (B1U) (B1U) (B3G) (AU) (AG) (B3G) (B2U) (B2G)
                 (B1G) (B3U) (AG) (B1U) (B2U) (B1U) (B2G) (B3G)
                 (AU) (B2U) (B3G) (B3G) (AG) (B2U) (B2U) (AU) (AG)
                 (B2G) (B1U) (AG) (B1U) (B3G) (B2U) (B3G) (AG)
                 (B1U) (B2U) (B3G) (B1U) (B2G) (AU) (B3G) (AG)
                 (B3G) (AU) (B2G) (B1U) (AG) (B2U) (B1U) (B1U)
                 (B3G) (B2U) (B3G) (AG) (B1U) (B2G) (AU) (AG) (B2U)
[...]
  Beta virt. eigenvalues --    3.82330   3.82903   3.84242   3.84370   3.84925
  Beta virt. eigenvalues --    3.86327   3.86499   3.87497   3.88539   3.89336
  Beta virt. eigenvalues --    3.89526   3.89862   3.89920   3.90108   3.90420
  Beta virt. eigenvalues --    3.91637   3.92066   3.92101   3.92148   3.92591
  Beta virt. eigenvalues --    3.92715   3.93802   3.94175   3.95329   3.95423
  Beta virt. eigenvalues --    3.96271   3.96278   3.96884   3.96904   3.98423
  Beta virt. eigenvalues --    3.98635   3.98801   3.99002   3.99734   4.00841
  Beta virt. eigenvalues --    4.01921   4.02020   4.02925   4.03127   4.04132
  Beta virt. eigenvalues --    4.04314   4.04743   4.04973   4.04994   4.05267
  Beta virt. eigenvalues --    4.05651   4.05695   4.05782   4.06155   4.07958
  Beta virt. eigenvalues --    4.07989   4.08131   4.08651   4.09605   4.09622
  Beta virt. eigenvalues --    4.09759   4.10247   4.10461   4.10657   4.10717
  Beta virt. eigenvalues --    4.11859   4.13407   4.13430   4.14114   4.14139
  Beta virt. eigenvalues --    4.14204   4.14940   4.15990   4.16527   4.16800
  Beta virt. eigenvalues --    4.17084   4.17383   4.17418   4.17999   4.18113
  Beta virt. eigenvalues --    4.18146   4.18559   4.19143   4.19591   4.20933
  Beta virt. eigenvalues --    4.21057   4.21651   4.21965   4.22251   4.22603
  Beta virt. eigenvalues --    4.22729   4.22742   4.23598   4.24030   4.24030
  Beta virt. eigenvalues --    4.24071   4.24172   4.24454   4.24971   4.26518
  Beta virt. eigenvalues --    4.26844   4.28434   4.28594   4.28816   4.28912
  Beta virt. eigenvalues --    4.28925   4.28932   4.30121   4.30497   4.30511
  Beta virt. eigenvalues --    4.31469   4.31546   4.32559   4.32934   4.32964
  Beta virt. eigenvalues --    4.32973   4.33501   4.33635   4.33786   4.34789
  Beta virt. eigenvalues --    4.35492   4.35711   4.36653   4.37022   4.38838
  Beta virt. eigenvalues --    4.39307   4.39335   4.39796   4.39875   4.40692
  Beta virt. eigenvalues --    4.41061   4.41116   4.41320   4.41396   4.43061
  Beta virt. eigenvalues --    4.43277   4.43968   4.45321   4.45549   4.46082
  Beta virt. eigenvalues --    4.46108   4.46612   4.47256   4.48561   4.49353
  Beta virt. eigenvalues --    4.50420   4.50427   4.52202   4.54172   4.55457
  Beta virt. eigenvalues --    4.55639   4.55656   4.57498   4.57517   4.58657
  Beta virt. eigenvalues --    4.59005   4.59444   4.60186   4.60609   4.60765
  Beta virt. eigenvalues --    4.62249   4.62900   4.63990   4.64391   4.65384
  Beta virt. eigenvalues --    4.65674   4.66278   4.66295   4.66309   4.66855
  Beta virt. eigenvalues --    4.67581   4.68739   4.69913   4.69942   4.70612
  Beta virt. eigenvalues --    4.71930   4.73162   4.74262   4.74954   4.75442
  Beta virt. eigenvalues --    4.75555   4.76476   4.76539   4.76708   4.77816
  Beta virt. eigenvalues --    4.79179   4.79507   4.80672   4.81401   4.84018
  Beta virt. eigenvalues --    4.84149   4.84409   4.86679   4.87176   4.88509
  Beta virt. eigenvalues --    4.88763   4.89000   4.89075   4.89819   4.90053
  Beta virt. eigenvalues --    4.90623   4.91281   4.92051   4.95398   4.96159
  Beta virt. eigenvalues --    4.96321   4.96504   4.98590   5.00155   5.00209
  Beta virt. eigenvalues --    5.00590   5.02708   5.03501   5.05809   5.06032
  Beta virt. eigenvalues --    5.07757   5.08300   5.09379   5.10176   5.11478
  Beta virt. eigenvalues --    5.13102   5.13220   5.14299   5.14665   5.15371
  Beta virt. eigenvalues --    5.15893   5.16223   5.17468   5.19033   5.20454
  Beta virt. eigenvalues --    5.20580   5.22054   5.23942   5.24039   5.24703
  Beta virt. eigenvalues --    5.25143   5.26131   5.27272   5.27889   5.30808
  Beta virt. eigenvalues --    5.31762   5.35385   5.40084   5.40108   5.40538
  Beta virt. eigenvalues --    5.41599   5.44166   5.44374   5.44931   5.46812
  Beta virt. eigenvalues --    5.46879   5.48853   5.49394   5.51234   5.51793
  Beta virt. eigenvalues --    5.54495   5.54500   5.55200   5.57022   5.60426
  Beta virt. eigenvalues --    5.63459   5.64658   5.64921   5.67278   5.67387
  Beta virt. eigenvalues --    5.70413   5.71178   5.71473   5.74433   5.76083
  Beta virt. eigenvalues --    5.76740   5.78895   5.80451   5.83055   5.83795
  Beta virt. eigenvalues --    5.91328   5.92952   5.98215   6.04910   6.07983
  Beta virt. eigenvalues --    6.17437   6.25980   6.52330  21.60473  22.01493
  Beta virt. eigenvalues --   22.19500  22.41480  22.41484  22.42005  22.43156
  Beta virt. eigenvalues --   22.45145  22.47510  22.47935  22.52296  22.53596
  Beta virt. eigenvalues --   22.54909  22.57533  22.61920  22.62597  22.64697
  Beta virt. eigenvalues --   22.66489  22.66728  22.66983  22.68448  22.69335
  Beta virt. eigenvalues --   22.69563  22.69749  22.69963  22.71365  22.74847
  Beta virt. eigenvalues --   22.76948  22.78607  22.80175  22.88100  22.90742
  Beta virt. eigenvalues --   22.93502  22.93894  22.95208  22.99701  22.99840
  Beta virt. eigenvalues --   23.08403  23.12419  23.12800  23.20223  23.27225
  Beta virt. eigenvalues --   23.32593  23.41754  23.56007  23.64450  23.75447
  Beta virt. eigenvalues --   24.14537
          Condensed to atoms (all electrons):
          Atomic-Atomic Spin Densities.
 Mulliken charges and spin densities:
               1          2
     1  C   -0.138047   0.000000
     2  C   -0.184479  -0.000000
     3  C    0.111340   0.000000
     4  C   -0.017634  -0.000000
     5  C    0.111340   0.000000
     6  C   -0.184479  -0.000000
     7  C    0.176657   0.000000
     8  C   -0.017634  -0.000000
     9  C    0.111340   0.000000
    10  C    0.176657   0.000000
    11  C   -0.184479  -0.000000
    12  H    0.081568   0.000000
    13  C   -0.138047   0.000000
    14  C   -0.184479  -0.000000
    15  C    0.111340   0.000000
    16  C    0.176657   0.000000
    17  C    0.176657   0.000000
    18  H    0.103225  -0.000000
    19  H    0.081568   0.000000
    20  H    0.081568   0.000000
    21  H    0.103225  -0.000000
    22  H    0.081568   0.000000
    23  C   -0.360038  -0.000000
    24  C    0.286659   0.000000
    25  C    0.286659   0.000000
    26  C   -0.360038  -0.000000
    27  H    0.077914  -0.000000
    28  H    0.077914  -0.000000
    29  C   -0.388817   0.000000
    30  C    0.284837  -0.000000
    31  C    0.284837  -0.000000
    32  C   -0.388817   0.000000
    33  H    0.088771   0.000000
    34  H    0.088771   0.000000
    35  C    0.286659   0.000000
    36  C   -0.360038  -0.000000
    37  C   -0.360038  -0.000000
    38  C    0.286659   0.000000
    39  H    0.077914  -0.000000
    40  H    0.077914  -0.000000
    41  C    0.284837  -0.000000
    42  C   -0.388817   0.000000
    43  C   -0.388817   0.000000
    44  C    0.284837  -0.000000
    45  H    0.088771   0.000000
    46  H    0.088771   0.000000
    47  C   -0.360476   0.000000
    48  C   -0.360476   0.000000
    49  H    0.089951   0.000000
    50  H    0.089951   0.000000
    51  C   -0.360476   0.000000
    52  C   -0.360476   0.000000
    53  C    0.235338  -0.000000
    54  C    0.235338  -0.000000
    55  H    0.089951   0.000000
    56  H    0.089951   0.000000
    57  C    0.235338  -0.000000
    58  C   -0.232574   0.000000
    59  C   -0.087464  -0.000000
    60  C   -0.087464  -0.000000
    61  C   -0.232574   0.000000
    62  C    0.235338  -0.000000
    63  H    0.099354   0.000000
    64  H    0.107685   0.000000
    65  H    0.107685   0.000000
    66  H    0.099354   0.000000
    67  C   -0.232574   0.000000
    68  C   -0.232574   0.000000
    69  C   -0.087464  -0.000000
    70  C   -0.087464  -0.000000
    71  H    0.099354   0.000000
    72  H    0.099354   0.000000
    73  H    0.107685   0.000000
    74  H    0.107685   0.000000
 Sum of Mulliken charges =  -0.00000   0.00000
 Mulliken charges and spin densities with hydrogens summed into heavy atoms:
               1          2
     1  C   -0.034822   0.000000
     2  C   -0.102911  -0.000000
     3  C    0.111340   0.000000
     4  C   -0.017634  -0.000000
     5  C    0.111340   0.000000
     6  C   -0.102911  -0.000000
     7  C    0.176657   0.000000
     8  C   -0.017634  -0.000000
     9  C    0.111340   0.000000
    10  C    0.176657   0.000000
    11  C   -0.102911  -0.000000
    13  C   -0.034822   0.000000
    14  C   -0.102911  -0.000000
    15  C    0.111340   0.000000
    16  C    0.176657   0.000000
    17  C    0.176657   0.000000
    23  C   -0.282123  -0.000000
    24  C    0.286659   0.000000
    25  C    0.286659   0.000000
    26  C   -0.282123  -0.000000
    29  C   -0.300046   0.000000
    30  C    0.284837  -0.000000
    31  C    0.284837  -0.000000
    32  C   -0.300046   0.000000
    35  C    0.286659   0.000000
    36  C   -0.282123  -0.000000
    37  C   -0.282123  -0.000000
    38  C    0.286659   0.000000
    41  C    0.284837  -0.000000
    42  C   -0.300046   0.000000
    43  C   -0.300046   0.000000
    44  C    0.284837  -0.000000
    47  C   -0.270525   0.000000
    48  C   -0.270525   0.000000
    51  C   -0.270525   0.000000
    52  C   -0.270525   0.000000
    53  C    0.235338  -0.000000
    54  C    0.235338  -0.000000
    57  C    0.235338  -0.000000
    58  C   -0.133220   0.000000
    59  C    0.020222  -0.000000
    60  C    0.020222  -0.000000
    61  C   -0.133220   0.000000
    62  C    0.235338  -0.000000
    67  C   -0.133220   0.000000
    68  C   -0.133220   0.000000
    69  C    0.020222  -0.000000
    70  C    0.020222  -0.000000
 Electronic spatial extent (au):  <R**2>=          60153.3672
 Charge=              0.0000 electrons
 Dipole moment (field-independent basis, Debye):
    X=              0.0000    Y=             -0.0000    Z=              0.0000  Tot=              0.0000
 Quadrupole moment (field-independent basis, Debye-Ang):
   XX=           -289.9553   YY=           -231.9753   ZZ=           -236.5392
   XY=              0.0000   XZ=              0.0000   YZ=              0.0000
 Traceless Quadrupole moment (field-independent basis, Debye-Ang):
   XX=            -37.1321   YY=             20.8480   ZZ=             16.2841
   XY=              0.0000   XZ=              0.0000   YZ=              0.0000
 Octapole moment (field-independent basis, Debye-Ang**2):
  XXX=              0.0000  YYY=              0.0000  ZZZ=             -0.0000  XYY=              0.0000
  XXY=              0.0000  XXZ=              0.0000  XZZ=              0.0000  YZZ=              0.0000
  YYZ=              0.0000  XYZ=             -0.0000
 Hexadecapole moment (field-independent basis, Debye-Ang**3):
 XXXX=           -332.1086 YYYY=         -71049.0895 ZZZZ=          -4035.1760 XXXY=             -0.0000
 XXXZ=              0.0000 YYYX=             -0.0000 YYYZ=             -0.0000 ZZZX=              0.0000
 ZZZY=             -0.0000 XXYY=         -14838.9778 XXZZ=           -891.3511 YYZZ=         -12754.6644
 XXYZ=             -0.0000 YYXZ=              0.0000 ZZXY=             -0.0000
 N-N= 4.739732033262D+03 E-N=-1.375860511648D+04  KE= 1.834186034678D+03
 Symmetry AG   KE= 4.867520702764D+02
 Symmetry B1G  KE= 1.260987072040D+01
 Symmetry B2G  KE= 1.371371515866D+01
 Symmetry B3G  KE= 4.059566544767D+02
 Symmetry AU   KE= 1.165854684603D+01
 Symmetry B1U  KE= 4.715957353133D+02
 Symmetry B2U  KE= 4.175477236562D+02
 Symmetry B3U  KE= 1.435171822995D+01
 Symmetry AG   SP= 1.025296800110D-14
 Symmetry B1G  SP=-1.233412417554D-14
 Symmetry B2G  SP=-1.014025634282D-14
 Symmetry B3G  SP=-5.120831697614D-14
 Symmetry AU   SP= 2.665686704262D-15
 Symmetry B1U  SP=-2.370886991446D-14
 Symmetry B2U  SP= 6.480344214339D-14
 Symmetry B3U  SP= 1.767483918292D-14
 Leave Link  601 at Mon Feb  3 21:30:23 2020, MaxMem=  6710886400 cpu:             454.3 elap:              28.8
 (Enter /opt/ohpc/pub/libs/gaussian/g16-A.03/sandybridge/g16/l9999.exe)
 Electronic transition elements 
                 1             2             3             4             5 
      1  -0.184367D+04 -0.184367D+04 -0.184362D+04 -0.184362D+04 -0.184362D+04
      2   0.000000D+00  0.000000D+00  0.000000D+00  0.000000D+00  0.000000D+00
      3   0.000000D+00  0.000000D+00  0.000000D+00  0.000000D+00  0.000000D+00
      4   0.000000D+00  0.000000D+00  0.000000D+00  0.000000D+00 -0.108920D+01
      5   0.000000D+00  0.000000D+00  0.000000D+00  0.000000D+00  0.000000D+00
      6   0.000000D+00  0.000000D+00  0.000000D+00  0.000000D+00  0.000000D+00
      7   0.000000D+00  0.000000D+00  0.000000D+00  0.000000D+00  0.993322D-01
      8   0.000000D+00  0.000000D+00  0.000000D+00  0.000000D+00  0.000000D+00
      9   0.000000D+00  0.000000D+00  0.000000D+00  0.000000D+00  0.000000D+00
     10   0.000000D+00  0.000000D+00  0.000000D+00  0.000000D+00  0.000000D+00
     11   0.000000D+00  0.000000D+00  0.000000D+00  0.000000D+00  0.000000D+00
     12   0.000000D+00  0.000000D+00  0.000000D+00  0.000000D+00  0.000000D+00
     13   0.000000D+00  0.000000D+00  0.000000D+00  0.000000D+00  0.000000D+00
     14   0.000000D+00  0.000000D+00  0.000000D+00  0.000000D+00  0.000000D+00
     15   0.000000D+00  0.000000D+00  0.000000D+00  0.000000D+00  0.000000D+00
     16   0.000000D+00  0.000000D+00  0.000000D+00  0.000000D+00  0.000000D+00
                 6             7             8             9            10 
      1  -0.184362D+04 -0.184361D+04 -0.184360D+04 -0.184359D+04 -0.184359D+04
      2   0.000000D+00  0.000000D+00  0.000000D+00  0.000000D+00  0.000000D+00
      3   0.000000D+00  0.000000D+00  0.000000D+00  0.000000D+00  0.000000D+00
      4   0.000000D+00  0.000000D+00  0.000000D+00  0.000000D+00  0.000000D+00
      5   0.000000D+00  0.000000D+00  0.000000D+00  0.000000D+00  0.000000D+00
      6   0.000000D+00  0.000000D+00  0.000000D+00  0.000000D+00  0.000000D+00
      7   0.000000D+00  0.000000D+00  0.000000D+00  0.000000D+00  0.000000D+00
      8   0.138173D+01  0.000000D+00  0.000000D+00  0.000000D+00  0.000000D+00
      9   0.000000D+00  0.000000D+00  0.000000D+00  0.000000D+00  0.000000D+00
     10   0.000000D+00  0.000000D+00  0.000000D+00  0.000000D+00  0.000000D+00
     11   0.000000D+00  0.000000D+00  0.000000D+00  0.000000D+00  0.000000D+00
     12   0.000000D+00  0.000000D+00  0.000000D+00  0.000000D+00  0.000000D+00
     13   0.000000D+00  0.000000D+00  0.000000D+00  0.000000D+00  0.000000D+00
     14   0.000000D+00  0.000000D+00  0.000000D+00  0.000000D+00  0.000000D+00
     15   0.000000D+00  0.000000D+00  0.000000D+00  0.000000D+00  0.000000D+00
     16   0.155575D+01  0.000000D+00  0.000000D+00  0.000000D+00  0.000000D+00
                11            12            13            14            15 
      1  -0.184359D+04 -0.184359D+04 -0.184359D+04 -0.184359D+04 -0.184359D+04
      2   0.000000D+00  0.000000D+00  0.000000D+00  0.000000D+00  0.000000D+00
      3   0.000000D+00  0.000000D+00 -0.835738D+00  0.000000D+00  0.000000D+00
      4   0.000000D+00  0.000000D+00  0.000000D+00  0.000000D+00  0.000000D+00
      5   0.000000D+00  0.000000D+00  0.000000D+00  0.000000D+00  0.000000D+00
      6   0.000000D+00  0.000000D+00  0.958862D-01  0.000000D+00  0.000000D+00
      7   0.000000D+00  0.000000D+00  0.000000D+00  0.000000D+00  0.000000D+00
      8   0.000000D+00  0.000000D+00  0.000000D+00  0.000000D+00  0.000000D+00
      9   0.000000D+00  0.000000D+00  0.000000D+00  0.000000D+00  0.000000D+00
     10   0.000000D+00  0.000000D+00  0.000000D+00  0.000000D+00  0.000000D+00
     11   0.000000D+00  0.000000D+00  0.000000D+00  0.000000D+00 -0.219899D-02
     12   0.000000D+00  0.000000D+00  0.000000D+00  0.000000D+00  0.172749D+01
     13   0.000000D+00  0.000000D+00  0.000000D+00  0.000000D+00 -0.183758D+00
     14   0.000000D+00  0.000000D+00  0.000000D+00  0.000000D+00  0.000000D+00
     15   0.000000D+00  0.000000D+00  0.000000D+00  0.000000D+00  0.000000D+00
     16   0.000000D+00  0.000000D+00  0.000000D+00  0.000000D+00  0.000000D+00
                16            17            18            19            20 
      1  -0.184358D+04 -0.184358D+04 -0.184358D+04 -0.184358D+04 -0.184358D+04
      2   0.000000D+00  0.000000D+00  0.000000D+00  0.000000D+00  0.000000D+00
      3   0.000000D+00  0.000000D+00  0.000000D+00  0.000000D+00  0.000000D+00
      4   0.000000D+00  0.000000D+00  0.000000D+00  0.201439D+00  0.000000D+00
      5   0.000000D+00  0.000000D+00  0.000000D+00  0.000000D+00  0.000000D+00
      6   0.000000D+00  0.000000D+00  0.000000D+00  0.000000D+00  0.000000D+00
      7   0.000000D+00  0.000000D+00  0.000000D+00 -0.254535D-01  0.000000D+00
      8   0.996753D+00  0.000000D+00  0.000000D+00  0.000000D+00  0.000000D+00
      9   0.000000D+00  0.000000D+00  0.000000D+00  0.000000D+00  0.000000D+00
     10   0.000000D+00  0.000000D+00  0.000000D+00  0.000000D+00  0.000000D+00
     11   0.000000D+00  0.000000D+00  0.000000D+00  0.000000D+00  0.000000D+00
     12   0.000000D+00  0.000000D+00  0.000000D+00  0.000000D+00  0.000000D+00
     13   0.000000D+00  0.000000D+00  0.000000D+00  0.000000D+00  0.000000D+00
     14   0.000000D+00  0.000000D+00  0.000000D+00  0.000000D+00  0.000000D+00
     15   0.000000D+00  0.000000D+00  0.000000D+00  0.000000D+00  0.000000D+00
     16   0.469071D+00  0.000000D+00  0.000000D+00  0.000000D+00  0.000000D+00

 Test job not archived.
 1\1\GINC-CNODE069\SP\ULC-wHPBE TD-FC\def2TZVP\C48H26\QAI222\03-Feb-202
 0\0\\#P uLC-wHPBE/def2tzvp iop(3/107=0178000000, 3/108=0178000000) td(
 nstates=20)\\H26 C48\\0,1\C,0,0.,0.,3.537928\C,0,0.,1.198662,2.84387\C
 ,0,0.,1.227234,1.444743\C,0,0.,0.,0.730717\C,0,0.,-1.227234,1.444743\C
 ,0,0.,-1.198662,2.84387\C,0,0.,2.512309,0.722226\C,0,0.,0.,-0.730717\C
 ,0,0.,1.227234,-1.444743\C,0,0.,2.512309,-0.722226\C,0,0.,1.198662,-2.
 84387\H,0,0.,2.125321,-3.412435\C,0,0.,0.,-3.537928\C,0,0.,-1.198662,-
 2.84387\C,0,0.,-1.227234,-1.444743\C,0,0.,-2.512309,-0.722226\C,0,0.,-
 2.512309,0.722226\H,0,0.,0.,4.628143\H,0,0.,2.125321,3.412435\H,0,0.,-
 2.125321,3.412435\H,0,0.,0.,-4.628143\H,0,0.,-2.125321,-3.412435\C,0,0
 .,3.718191,1.38845\C,0,0.,4.971682,0.71977\C,0,0.,4.971682,-0.71977\C,
 0,0.,3.718191,-1.38845\H,0,0.,3.750308,2.476462\H,0,0.,3.750308,-2.476
 462\C,0,0.,6.185808,1.405016\C,0,0.,7.415985,0.723728\C,0,0.,7.415985,
 -0.723728\C,0,0.,6.185808,-1.405016\H,0,0.,6.184746,2.497288\H,0,0.,6.
 184746,-2.497288\C,0,0.,-4.971682,0.71977\C,0,0.,-3.718191,1.38845\C,0
 ,0.,-3.718191,-1.38845\C,0,0.,-4.971682,-0.71977\H,0,0.,-3.750308,2.47
 6462\H,0,0.,-3.750308,-2.476462\C,0,0.,-7.415985,0.723728\C,0,0.,-6.18
 5808,1.405016\C,0,0.,-6.185808,-1.405016\C,0,0.,-7.415985,-0.723728\H,
 0,0.,-6.184746,2.497288\H,0,0.,-6.184746,-2.497288\C,0,0.,8.65215,1.40
 3863\C,0,0.,8.65215,-1.403863\H,0,0.,8.65296,2.496158\H,0,0.,8.65296,-
 2.496158\C,0,0.,-8.65215,1.403863\C,0,0.,-8.65215,-1.403863\C,0,0.,-9.
 862957,-0.723193\C,0,0.,-9.862957,0.723193\H,0,0.,-8.65296,2.496158\H,
 0,0.,-8.65296,-2.496158\C,0,0.,9.862957,0.723193\C,0,0.,11.123753,1.40
 7086\C,0,0.,12.298362,0.714659\C,0,0.,12.298362,-0.714659\C,0,0.,11.12
 3753,-1.407086\C,0,0.,9.862957,-0.723193\H,0,0.,11.121586,2.498454\H,0
 ,0.,13.248881,1.249019\H,0,0.,13.248881,-1.249019\H,0,0.,11.121586,-2.
 498454\C,0,0.,-11.123753,1.407086\C,0,0.,-11.123753,-1.407086\C,0,0.,-
 12.298362,-0.714659\C,0,0.,-12.298362,0.714659\H,0,0.,-11.121586,2.498
 454\H,0,0.,-11.121586,-2.498454\H,0,0.,-13.248881,-1.249019\H,0,0.,-13
 .248881,1.249019\\Version=EM64L-G16RevA.03\State=1-AG\HF=-1843.7045539
 \S2=0.\S2-1=0.\S2A=0.\RMSD=9.836e-09\PG=D02H [C2"(H1C1C1.C1C1H1),SG(C4
 4H24)]\\@


 ACCORDING TO HEN3RY, LIFE IS MUCH LIKE A SEWER........
 YOU GET OUT OF IT JUST WHAT YOU PUT INTO IT...........
                         TOM LEHRER - (THE 3 IS SILENT)
 Job cpu time:       2 days 21 hours 31 minutes 43.7 seconds.
 Elapsed time:       0 days  4 hours 22 minutes 23.4 seconds.
 File lengths (MBytes):  RWF=  27760 Int=      0 D2E=      0 Chk=   2304 Scr=     32
 Normal termination of Gaussian 16 at Mon Feb  3 21:30:26 2020.
