 Entering Gaussian System, Link 0=g16
 Input=5p5.gjf
 Output=5p5.log
 Initial command:
 /opt/ohpc/pub/libs/gaussian/g16-A.03/sandybridge/g16/l1.exe "/scratch/qai222/pamol/pamol_fmt/us1/5p5/Gau-42435.inp" -scrdir="/scratch/qai222/pamol/pamol_fmt/us1/5p5/"
 Entering Link 1 = /opt/ohpc/pub/libs/gaussian/g16-A.03/sandybridge/g16/l1.exe PID=     42436.
  
 Copyright (c) 1988,1990,1992,1993,1995,1998,2003,2009,2016,
            Gaussian, Inc.  All Rights Reserved.
  
 This is part of the Gaussian(R) 16 program.  It is based on
 the Gaussian(R) 09 system (copyright 2009, Gaussian, Inc.),
 the Gaussian(R) 03 system (copyright 2003, Gaussian, Inc.),
 the Gaussian(R) 98 system (copyright 1998, Gaussian, Inc.),
 the Gaussian(R) 94 system (copyright 1995, Gaussian, Inc.),
 the Gaussian 92(TM) system (copyright 1992, Gaussian, Inc.),
 the Gaussian 90(TM) system (copyright 1990, Gaussian, Inc.),
 the Gaussian 88(TM) system (copyright 1988, Gaussian, Inc.),
 the Gaussian 86(TM) system (copyright 1986, Carnegie Mellon
 University), and the Gaussian 82(TM) system (copyright 1983,
 Carnegie Mellon University). Gaussian is a federally registered
 trademark of Gaussian, Inc.
  
 This software contains proprietary and confidential information,
 including trade secrets, belonging to Gaussian, Inc.
  
 This software is provided under written license and may be
 used, copied, transmitted, or stored only in accord with that
 written license.
  
 The following legend is applicable only to US Government
 contracts under FAR:
  
                    RESTRICTED RIGHTS LEGEND
  
 Use, reproduction and disclosure by the US Government is
 subject to restrictions as set forth in subparagraphs (a)
 and (c) of the Commercial Computer Software - Restricted
 Rights clause in FAR 52.227-19.
  
 Gaussian, Inc.
 340 Quinnipiac St., Bldg. 40, Wallingford CT 06492
  
  
 ---------------------------------------------------------------
 Warning -- This program may not be used in any manner that
 competes with the business of Gaussian, Inc. or will provide
 assistance to any competitor of Gaussian, Inc.  The licensee
 of this program is prohibited from giving any competitor of
 Gaussian, Inc. access to this program.  By using this program,
 the user acknowledges that Gaussian, Inc. is engaged in the
 business of creating and licensing software in the field of
 computational chemistry and represents and warrants to the
 licensee that it is not a competitor of Gaussian, Inc. and that
 it will not use this program in any manner prohibited above.
 ---------------------------------------------------------------
  

 Cite this work as:
 Gaussian 16, Revision A.03,
 M. J. Frisch, G. W. Trucks, H. B. Schlegel, G. E. Scuseria, 
 M. A. Robb, J. R. Cheeseman, G. Scalmani, V. Barone, 
 G. A. Petersson, H. Nakatsuji, X. Li, M. Caricato, A. V. Marenich, 
 J. Bloino, B. G. Janesko, R. Gomperts, B. Mennucci, H. P. Hratchian, 
 J. V. Ortiz, A. F. Izmaylov, J. L. Sonnenberg, D. Williams-Young, 
 F. Ding, F. Lipparini, F. Egidi, J. Goings, B. Peng, A. Petrone, 
 T. Henderson, D. Ranasinghe, V. G. Zakrzewski, J. Gao, N. Rega, 
 G. Zheng, W. Liang, M. Hada, M. Ehara, K. Toyota, R. Fukuda, 
 J. Hasegawa, M. Ishida, T. Nakajima, Y. Honda, O. Kitao, H. Nakai, 
 T. Vreven, K. Throssell, J. A. Montgomery, Jr., J. E. Peralta, 
 F. Ogliaro, M. J. Bearpark, J. J. Heyd, E. N. Brothers, K. N. Kudin, 
 V. N. Staroverov, T. A. Keith, R. Kobayashi, J. Normand, 
 K. Raghavachari, A. P. Rendell, J. C. Burant, S. S. Iyengar, 
 J. Tomasi, M. Cossi, J. M. Millam, M. Klene, C. Adamo, R. Cammi, 
 J. W. Ochterski, R. L. Martin, K. Morokuma, O. Farkas, 
 J. B. Foresman, and D. J. Fox, Gaussian, Inc., Wallingford CT, 2016.
 
 ******************************************
 Gaussian 16:  EM64L-G16RevA.03 25-Dec-2016
                 3-Feb-2020 
 ******************************************
 %mem=50GB
 %nproc=16
 Will use up to   16 processors via shared memory.
 ----------------------------------------------------------------------
 #P uLC-wHPBE/def2tzvp iop(3/107=0175000000, 3/108=0175000000) td(nstat
 es=20)
 ----------------------------------------------------------------------
 1/38=1,172=1/1;
 2/12=2,17=6,18=5,40=1/2;
 3/5=44,7=101,11=2,25=1,30=1,74=-71,107=175000000,108=175000000,116=2/1,2,3,8;
 4//1;
 5/5=2,38=5/2;
 8/6=1,10=1,108=20/1;
 9/41=20,42=1,70=2/14;
 6/7=2,8=2,9=2,10=2/1;
 99/5=1,9=1/99;
 Leave Link    1 at Mon Feb  3 18:20:36 2020, MaxMem=  6710886400 cpu:               9.5 elap:               0.6
 (Enter /opt/ohpc/pub/libs/gaussian/g16-A.03/sandybridge/g16/l101.exe)
 -------
 H30 C56
 -------
 Symbolic Z-matrix:
 Charge =  0 Multiplicity = 1
 C                     0.        0.        3.53871 
 C                     0.        1.19855   2.8445 
 C                     0.        1.22705   1.44526 
 C                     0.        0.        0.73121 
 C                     0.       -1.22705   1.44526 
 C                     0.       -1.19855   2.8445 
 C                     0.        2.51294   0.72353 
 C                     0.        0.       -0.73121 
 C                     0.        1.22705  -1.44526 
 C                     0.        2.51294  -0.72353 
 C                     0.        1.19855  -2.8445 
 H                     0.        2.12526  -3.41297 
 C                     0.        0.       -3.53871 
 C                     0.       -1.19855  -2.8445 
 C                     0.       -1.22705  -1.44526 
 C                     0.       -2.51294  -0.72353 
 C                     0.       -2.51294   0.72353 
 H                     0.        0.        4.62893 
 H                     0.        2.12526   3.41297 
 H                     0.       -2.12526   3.41297 
 H                     0.        0.       -4.62893 
 H                     0.       -2.12526  -3.41297 
 C                     0.        3.71702   1.38944 
 C                     0.        4.97346   0.72132 
 C                     0.        4.97346  -0.72132 
 C                     0.        3.71702  -1.38944 
 H                     0.        3.74934   2.47745 
 H                     0.        3.74934  -2.47745 
 C                     0.        6.18288   1.40648 
 C                     0.        7.41952   0.72581 
 C                     0.        7.41952  -0.72581 
 C                     0.        6.18288  -1.40648 
 H                     0.        6.18152   2.49873 
 H                     0.        6.18152  -2.49873 
 C                     0.       -4.97346   0.72132 
 C                     0.       -3.71702   1.38944 
 C                     0.       -3.71702  -1.38944 
 C                     0.       -4.97346  -0.72132 
 H                     0.       -3.74934   2.47745 
 H                     0.       -3.74934  -2.47745 
 C                     0.       -7.41952   0.72581 
 C                     0.       -6.18288   1.40648 
 C                     0.       -6.18288  -1.40648 
 C                     0.       -7.41952  -0.72581 
 H                     0.       -6.18152   2.49873 
 H                     0.       -6.18152  -2.49873 
 C                     0.        8.64615   1.40574 
 C                     0.        8.64615  -1.40574 
 H                     0.        8.64644   2.4979 
 H                     0.        8.64644  -2.4979 
 C                     0.       -8.64615   1.40574 
 C                     0.       -8.64615  -1.40574 
 C                     0.       -9.86889  -0.72525 
 C                     0.       -9.86889   0.72525 
 H                     0.       -8.64644   2.4979 
 H                     0.       -8.64644  -2.4979 
 C                     0.        9.86889   0.72525 
 C                     0.        11.11008   1.40525 
 C                     0.        11.11008  -1.40525 
 C                     0.        9.86889  -0.72525 
 H                     0.        11.11088   2.49753 
 H                     0.        11.11088  -2.49753 
 C                     0.       -11.11008   1.40525 
 C                     0.       -11.11008  -1.40525 
 C                     0.       -12.31719  -0.7247 
 C                     0.       -12.31719   0.7247 
 H                     0.       -11.11088   2.49753 
 H                     0.       -11.11088  -2.49753 
 C                     0.        12.31719   0.7247 
 C                     0.        13.58031   1.40815 
 C                     0.        14.75347   0.7157 
 C                     0.        14.75347  -0.7157 
 C                     0.        13.58031  -1.40815 
 C                     0.        12.31719  -0.7247 
 H                     0.        13.57816   2.49953 
 H                     0.        15.70447   1.24924 
 H                     0.        15.70447  -1.24924 
 H                     0.        13.57816  -2.49953 
 C                     0.       -13.58031  -1.40815 
 C                     0.       -13.58031   1.40815 
 C                     0.       -14.75347  -0.7157 
 H                     0.       -13.57816  -2.49953 
 C                     0.       -14.75347   0.7157 
 H                     0.       -13.57816   2.49953 
 H                     0.       -15.70447  -1.24924 
 H                     0.       -15.70447   1.24924 
 
 ITRead=  0  0  0  0  0  0  0  0  0  0  0  0  0  0  0  0  0  0  0  0
 ITRead=  0  0  0  0  0  0  0  0  0  0  0  0  0  0  0  0  0  0  0  0
 ITRead=  0  0  0  0  0  0  0  0  0  0  0  0  0  0  0  0  0  0  0  0
 ITRead=  0  0  0  0  0  0  0  0  0  0  0  0  0  0  0  0  0  0  0  0
 ITRead=  0  0  0  0  0  0
 MicOpt= -1 -1 -1 -1 -1 -1 -1 -1 -1 -1 -1 -1 -1 -1 -1 -1 -1 -1 -1 -1
 MicOpt= -1 -1 -1 -1 -1 -1 -1 -1 -1 -1 -1 -1 -1 -1 -1 -1 -1 -1 -1 -1
 MicOpt= -1 -1 -1 -1 -1 -1 -1 -1 -1 -1 -1 -1 -1 -1 -1 -1 -1 -1 -1 -1
 MicOpt= -1 -1 -1 -1 -1 -1 -1 -1 -1 -1 -1 -1 -1 -1 -1 -1 -1 -1 -1 -1
 MicOpt= -1 -1 -1 -1 -1 -1
 NAtoms=     86 NQM=       86 NQMF=       0 NMMI=      0 NMMIF=      0
                NMic=       0 NMicF=      0.
                    Isotopes and Nuclear Properties:
 (Nuclear quadrupole moments (NQMom) in fm**2, nuclear magnetic moments (NMagM)
  in nuclear magnetons)

  Atom         1           2           3           4           5           6           7           8           9          10
 IAtWgt=          12          12          12          12          12          12          12          12          12          12
 AtmWgt=  12.0000000  12.0000000  12.0000000  12.0000000  12.0000000  12.0000000  12.0000000  12.0000000  12.0000000  12.0000000
 NucSpn=           0           0           0           0           0           0           0           0           0           0
 AtZEff=  -0.0000000  -0.0000000  -0.0000000  -0.0000000  -0.0000000  -0.0000000  -0.0000000  -0.0000000  -0.0000000  -0.0000000
 NQMom=    0.0000000   0.0000000   0.0000000   0.0000000   0.0000000   0.0000000   0.0000000   0.0000000   0.0000000   0.0000000
 NMagM=    0.0000000   0.0000000   0.0000000   0.0000000   0.0000000   0.0000000   0.0000000   0.0000000   0.0000000   0.0000000
 AtZNuc=   6.0000000   6.0000000   6.0000000   6.0000000   6.0000000   6.0000000   6.0000000   6.0000000   6.0000000   6.0000000

  Atom        11          12          13          14          15          16          17          18          19          20
 IAtWgt=          12           1          12          12          12          12          12           1           1           1
 AtmWgt=  12.0000000   1.0078250  12.0000000  12.0000000  12.0000000  12.0000000  12.0000000   1.0078250   1.0078250   1.0078250
 NucSpn=           0           1           0           0           0           0           0           1           1           1
 AtZEff=  -0.0000000  -0.0000000  -0.0000000  -0.0000000  -0.0000000  -0.0000000  -0.0000000  -0.0000000  -0.0000000  -0.0000000
 NQMom=    0.0000000   0.0000000   0.0000000   0.0000000   0.0000000   0.0000000   0.0000000   0.0000000   0.0000000   0.0000000
 NMagM=    0.0000000   2.7928460   0.0000000   0.0000000   0.0000000   0.0000000   0.0000000   2.7928460   2.7928460   2.7928460
 AtZNuc=   6.0000000   1.0000000   6.0000000   6.0000000   6.0000000   6.0000000   6.0000000   1.0000000   1.0000000   1.0000000

  Atom        21          22          23          24          25          26          27          28          29          30
 IAtWgt=           1           1          12          12          12          12           1           1          12          12
 AtmWgt=   1.0078250   1.0078250  12.0000000  12.0000000  12.0000000  12.0000000   1.0078250   1.0078250  12.0000000  12.0000000
 NucSpn=           1           1           0           0           0           0           1           1           0           0
 AtZEff=  -0.0000000  -0.0000000  -0.0000000  -0.0000000  -0.0000000  -0.0000000  -0.0000000  -0.0000000  -0.0000000  -0.0000000
 NQMom=    0.0000000   0.0000000   0.0000000   0.0000000   0.0000000   0.0000000   0.0000000   0.0000000   0.0000000   0.0000000
 NMagM=    2.7928460   2.7928460   0.0000000   0.0000000   0.0000000   0.0000000   2.7928460   2.7928460   0.0000000   0.0000000
 AtZNuc=   1.0000000   1.0000000   6.0000000   6.0000000   6.0000000   6.0000000   1.0000000   1.0000000   6.0000000   6.0000000

  Atom        31          32          33          34          35          36          37          38          39          40
 IAtWgt=          12          12           1           1          12          12          12          12           1           1
 AtmWgt=  12.0000000  12.0000000   1.0078250   1.0078250  12.0000000  12.0000000  12.0000000  12.0000000   1.0078250   1.0078250
 NucSpn=           0           0           1           1           0           0           0           0           1           1
 AtZEff=  -0.0000000  -0.0000000  -0.0000000  -0.0000000  -0.0000000  -0.0000000  -0.0000000  -0.0000000  -0.0000000  -0.0000000
 NQMom=    0.0000000   0.0000000   0.0000000   0.0000000   0.0000000   0.0000000   0.0000000   0.0000000   0.0000000   0.0000000
 NMagM=    0.0000000   0.0000000   2.7928460   2.7928460   0.0000000   0.0000000   0.0000000   0.0000000   2.7928460   2.7928460
 AtZNuc=   6.0000000   6.0000000   1.0000000   1.0000000   6.0000000   6.0000000   6.0000000   6.0000000   1.0000000   1.0000000

  Atom        41          42          43          44          45          46          47          48          49          50
 IAtWgt=          12          12          12          12           1           1          12          12           1           1
 AtmWgt=  12.0000000  12.0000000  12.0000000  12.0000000   1.0078250   1.0078250  12.0000000  12.0000000   1.0078250   1.0078250
 NucSpn=           0           0           0           0           1           1           0           0           1           1
 AtZEff=  -0.0000000  -0.0000000  -0.0000000  -0.0000000  -0.0000000  -0.0000000  -0.0000000  -0.0000000  -0.0000000  -0.0000000
 NQMom=    0.0000000   0.0000000   0.0000000   0.0000000   0.0000000   0.0000000   0.0000000   0.0000000   0.0000000   0.0000000
 NMagM=    0.0000000   0.0000000   0.0000000   0.0000000   2.7928460   2.7928460   0.0000000   0.0000000   2.7928460   2.7928460
 AtZNuc=   6.0000000   6.0000000   6.0000000   6.0000000   1.0000000   1.0000000   6.0000000   6.0000000   1.0000000   1.0000000

  Atom        51          52          53          54          55          56          57          58          59          60
 IAtWgt=          12          12          12          12           1           1          12          12          12          12
 AtmWgt=  12.0000000  12.0000000  12.0000000  12.0000000   1.0078250   1.0078250  12.0000000  12.0000000  12.0000000  12.0000000
 NucSpn=           0           0           0           0           1           1           0           0           0           0
 AtZEff=  -0.0000000  -0.0000000  -0.0000000  -0.0000000  -0.0000000  -0.0000000  -0.0000000  -0.0000000  -0.0000000  -0.0000000
 NQMom=    0.0000000   0.0000000   0.0000000   0.0000000   0.0000000   0.0000000   0.0000000   0.0000000   0.0000000   0.0000000
 NMagM=    0.0000000   0.0000000   0.0000000   0.0000000   2.7928460   2.7928460   0.0000000   0.0000000   0.0000000   0.0000000
 AtZNuc=   6.0000000   6.0000000   6.0000000   6.0000000   1.0000000   1.0000000   6.0000000   6.0000000   6.0000000   6.0000000

  Atom        61          62          63          64          65          66          67          68          69          70
 IAtWgt=           1           1          12          12          12          12           1           1          12          12
 AtmWgt=   1.0078250   1.0078250  12.0000000  12.0000000  12.0000000  12.0000000   1.0078250   1.0078250  12.0000000  12.0000000
 NucSpn=           1           1           0           0           0           0           1           1           0           0
 AtZEff=  -0.0000000  -0.0000000  -0.0000000  -0.0000000  -0.0000000  -0.0000000  -0.0000000  -0.0000000  -0.0000000  -0.0000000
 NQMom=    0.0000000   0.0000000   0.0000000   0.0000000   0.0000000   0.0000000   0.0000000   0.0000000   0.0000000   0.0000000
 NMagM=    2.7928460   2.7928460   0.0000000   0.0000000   0.0000000   0.0000000   2.7928460   2.7928460   0.0000000   0.0000000
 AtZNuc=   1.0000000   1.0000000   6.0000000   6.0000000   6.0000000   6.0000000   1.0000000   1.0000000   6.0000000   6.0000000

  Atom        71          72          73          74          75          76          77          78          79          80
 IAtWgt=          12          12          12          12           1           1           1           1          12          12
 AtmWgt=  12.0000000  12.0000000  12.0000000  12.0000000   1.0078250   1.0078250   1.0078250   1.0078250  12.0000000  12.0000000
 NucSpn=           0           0           0           0           1           1           1           1           0           0
 AtZEff=  -0.0000000  -0.0000000  -0.0000000  -0.0000000  -0.0000000  -0.0000000  -0.0000000  -0.0000000  -0.0000000  -0.0000000
 NQMom=    0.0000000   0.0000000   0.0000000   0.0000000   0.0000000   0.0000000   0.0000000   0.0000000   0.0000000   0.0000000
 NMagM=    0.0000000   0.0000000   0.0000000   0.0000000   2.7928460   2.7928460   2.7928460   2.7928460   0.0000000   0.0000000
 AtZNuc=   6.0000000   6.0000000   6.0000000   6.0000000   1.0000000   1.0000000   1.0000000   1.0000000   6.0000000   6.0000000

  Atom        81          82          83          84          85          86
 IAtWgt=          12           1          12           1           1           1
 AtmWgt=  12.0000000   1.0078250  12.0000000   1.0078250   1.0078250   1.0078250
 NucSpn=           0           1           0           1           1           1
 AtZEff=  -0.0000000  -0.0000000  -0.0000000  -0.0000000  -0.0000000  -0.0000000
 NQMom=    0.0000000   0.0000000   0.0000000   0.0000000   0.0000000   0.0000000
 NMagM=    0.0000000   2.7928460   0.0000000   2.7928460   2.7928460   2.7928460
 AtZNuc=   6.0000000   1.0000000   6.0000000   1.0000000   1.0000000   1.0000000
 Leave Link  101 at Mon Feb  3 18:20:36 2020, MaxMem=  6710886400 cpu:               3.9 elap:               0.3
 (Enter /opt/ohpc/pub/libs/gaussian/g16-A.03/sandybridge/g16/l202.exe)
 Stoichiometry    C56H30
 Framework group  D2H[C2"(HCC.CCH),SG(C52H28)]
 Deg. of freedom    43
 Full point group                 D2H     NOp   8
 Largest Abelian subgroup         D2H     NOp   8
 Largest concise Abelian subgroup D2      NOp   4
                         Standard orientation:                         
 ---------------------------------------------------------------------
 Center     Atomic      Atomic             Coordinates (Angstroms)
 Number     Number       Type             X           Y           Z
 ---------------------------------------------------------------------
      1          6           0        0.000000    0.000000    3.538705
      2          6           0        0.000000    1.198545    2.844495
      3          6           0        0.000000    1.227049    1.445262
      4          6           0        0.000000    0.000000    0.731208
      5          6           0       -0.000000   -1.227049    1.445262
      6          6           0       -0.000000   -1.198545    2.844495
      7          6           0        0.000000    2.512936    0.723526
      8          6           0        0.000000    0.000000   -0.731208
      9          6           0        0.000000    1.227049   -1.445262
     10          6           0        0.000000    2.512936   -0.723526
     11          6           0        0.000000    1.198545   -2.844495
     12          1           0        0.000000    2.125260   -3.412973
     13          6           0        0.000000    0.000000   -3.538705
     14          6           0       -0.000000   -1.198545   -2.844495
     15          6           0       -0.000000   -1.227049   -1.445262
     16          6           0       -0.000000   -2.512936   -0.723526
     17          6           0       -0.000000   -2.512936    0.723526
     18          1           0        0.000000    0.000000    4.628930
     19          1           0       -0.000000    2.125260    3.412973
     20          1           0       -0.000000   -2.125260    3.412973
     21          1           0        0.000000    0.000000   -4.628930
     22          1           0       -0.000000   -2.125260   -3.412973
     23          6           0        0.000000    3.717018    1.389442
     24          6           0        0.000000    4.973457    0.721324
     25          6           0        0.000000    4.973457   -0.721324
     26          6           0        0.000000    3.717018   -1.389442
     27          1           0        0.000000    3.749336    2.477450
     28          1           0        0.000000    3.749336   -2.477450
     29          6           0        0.000000    6.182878    1.406482
     30          6           0        0.000000    7.419524    0.725811
     31          6           0        0.000000    7.419524   -0.725811
     32          6           0        0.000000    6.182878   -1.406482
     33          1           0        0.000000    6.181523    2.498725
     34          1           0        0.000000    6.181523   -2.498725
     35          6           0       -0.000000   -4.973457    0.721324
     36          6           0       -0.000000   -3.717018    1.389442
     37          6           0       -0.000000   -3.717018   -1.389442
     38          6           0       -0.000000   -4.973457   -0.721324
     39          1           0       -0.000000   -3.749336    2.477450
     40          1           0       -0.000000   -3.749336   -2.477450
     41          6           0       -0.000000   -7.419524    0.725811
     42          6           0       -0.000000   -6.182878    1.406482
     43          6           0       -0.000000   -6.182878   -1.406482
     44          6           0       -0.000000   -7.419524   -0.725811
     45          1           0       -0.000000   -6.181523    2.498725
     46          1           0       -0.000000   -6.181523   -2.498725
     47          6           0        0.000000    8.646145    1.405736
     48          6           0        0.000000    8.646145   -1.405736
     49          1           0        0.000000    8.646441    2.497902
     50          1           0        0.000000    8.646441   -2.497902
     51          6           0       -0.000000   -8.646145    1.405736
     52          6           0       -0.000000   -8.646145   -1.405736
     53          6           0        0.000000   -9.868891   -0.725245
     54          6           0       -0.000000   -9.868891    0.725245
     55          1           0       -0.000000   -8.646441    2.497902
     56          1           0       -0.000000   -8.646441   -2.497902
     57          6           0        0.000000    9.868891    0.725245
     58          6           0        0.000000   11.110078    1.405248
     59          6           0        0.000000   11.110078   -1.405248
     60          6           0        0.000000    9.868891   -0.725245
     61          1           0        0.000000   11.110883    2.497527
     62          1           0        0.000000   11.110883   -2.497527
     63          6           0       -0.000000  -11.110078    1.405248
     64          6           0       -0.000000  -11.110078   -1.405248
     65          6           0        0.000000  -12.317185   -0.724704
     66          6           0       -0.000000  -12.317185    0.724704
     67          1           0       -0.000000  -11.110883    2.497527
     68          1           0       -0.000000  -11.110883   -2.497527
     69          6           0        0.000000   12.317185    0.724704
     70          6           0        0.000000   13.580311    1.408153
     71          6           0        0.000000   14.753473    0.715698
     72          6           0        0.000000   14.753473   -0.715698
     73          6           0        0.000000   13.580311   -1.408153
     74          6           0        0.000000   12.317185   -0.724704
     75          1           0        0.000000   13.578161    2.499525
     76          1           0        0.000000   15.704466    1.249241
     77          1           0        0.000000   15.704466   -1.249241
     78          1           0        0.000000   13.578161   -2.499525
     79          6           0       -0.000000  -13.580311   -1.408153
     80          6           0       -0.000000  -13.580311    1.408153
     81          6           0       -0.000000  -14.753473   -0.715698
     82          1           0       -0.000000  -13.578161   -2.499525
     83          6           0       -0.000000  -14.753473    0.715698
     84          1           0       -0.000000  -13.578161    2.499525
     85          1           0       -0.000000  -15.704466   -1.249241
     86          1           0       -0.000000  -15.704466    1.249241
 ---------------------------------------------------------------------
 Rotational constants (GHZ):           0.3069015           0.0100457           0.0097273
 Leave Link  202 at Mon Feb  3 18:20:36 2020, MaxMem=  6710886400 cpu:               0.3 elap:               0.0
 (Enter /opt/ohpc/pub/libs/gaussian/g16-A.03/sandybridge/g16/l301.exe)
 Standard basis: def2TZVP (5D, 7F)
 Ernie: Thresh=  0.10000D-02 Tol=  0.10000D-05 Strict=F.
 There are   398 symmetry adapted cartesian basis functions of AG  symmetry.
 There are   156 symmetry adapted cartesian basis functions of B1G symmetry.
 There are   167 symmetry adapted cartesian basis functions of B2G symmetry.
 There are   377 symmetry adapted cartesian basis functions of B3G symmetry.
 There are   156 symmetry adapted cartesian basis functions of AU  symmetry.
 There are   398 symmetry adapted cartesian basis functions of B1U symmetry.
 There are   377 symmetry adapted cartesian basis functions of B2U symmetry.
 There are   167 symmetry adapted cartesian basis functions of B3U symmetry.
 There are   340 symmetry adapted basis functions of AG  symmetry.
 There are   143 symmetry adapted basis functions of B1G symmetry.
 There are   152 symmetry adapted basis functions of B2G symmetry.
 There are   323 symmetry adapted basis functions of B3G symmetry.
 There are   143 symmetry adapted basis functions of AU  symmetry.
 There are   340 symmetry adapted basis functions of B1U symmetry.
 There are   323 symmetry adapted basis functions of B2U symmetry.
 There are   152 symmetry adapted basis functions of B3U symmetry.
  1916 basis functions,  3096 primitive gaussians,  2196 cartesian basis functions
   183 alpha electrons      183 beta electrons
       nuclear repulsion energy      5806.7711227761 Hartrees.
 IExCor=33909 DFT=T Ex+Corr=LC-wHPBE ExCW=0 ScaHFX=  1.000000
 ScaDFX=  1.000000  1.000000  1.000000  1.000000 ScalE2=  1.000000  1.000000
 IRadAn=      5 IRanWt=     -1 IRanGd=            0 ICorTp=0 IEmpDi=  4
 HFx  wShort=  0.000000 wLong=  0.175000 cFull=  0.000000 cShort=  0.000000 cLong=  1.000000
 DFx  wShort=  0.000000 wLong=  0.175000 cFull=  0.000000 cShort=  1.000000 cLong=  0.000000
 NAtoms=   86 NActive=   86 NUniq=   23 SFac= 4.00D+00 NAtFMM=   60 NAOKFM=T Big=F
 Integral buffers will be    131072 words long.
 Raffenetti 2 integral format.
 Two-electron integral symmetry is turned on.
 Leave Link  301 at Mon Feb  3 18:20:36 2020, MaxMem=  6710886400 cpu:               1.0 elap:               0.1
 (Enter /opt/ohpc/pub/libs/gaussian/g16-A.03/sandybridge/g16/l302.exe)
 NPDir=0 NMtPBC=     1 NCelOv=     1 NCel=       1 NClECP=     1 NCelD=      1
         NCelK=      1 NCelE2=     1 NClLst=     1 CellRange=     0.0.
 One-electron integrals computed using PRISM.
 One-electron integral symmetry used in STVInt
   8 Symmetry operations used in ECPInt.
 ECPInt:  NShTT=  271216 NPrTT=  846972 LenC2=  137321 LenP2D=  282965.
 LDataN:  DoStor=T MaxTD1= 6 Len=  172
 NBasis=  1916 RedAO= T EigKep=  1.79D-06  NBF=   340   143   152   323   143   340   323   152
 NBsUse=  1915 1.00D-06 EigRej=  9.23D-07 NBFU=   340   143   152   323   143   339   323   152
 Precomputing XC quadrature grid using
 IXCGrd= 4 IRadAn=           5 IRanWt=          -1 IRanGd=           0 AccXCQ= 0.00D+00.
 Generated NRdTot=       0 NPtTot=           0 NUsed=           0 NTot=          32
 NSgBfM=  1575  1525  1532  1543  1575 MxSgAt=    86 MxSgA2=    86.
 Leave Link  302 at Mon Feb  3 18:20:41 2020, MaxMem=  6710886400 cpu:              80.9 elap:               5.1
 (Enter /opt/ohpc/pub/libs/gaussian/g16-A.03/sandybridge/g16/l303.exe)
 DipDrv:  MaxL=1.
 Leave Link  303 at Mon Feb  3 18:20:42 2020, MaxMem=  6710886400 cpu:               9.6 elap:               0.7
 (Enter /opt/ohpc/pub/libs/gaussian/g16-A.03/sandybridge/g16/l308.exe)
 Leave Link  308 at Mon Feb  3 18:20:43 2020, MaxMem=  6710886400 cpu:              19.6 elap:               1.4
 (Enter /opt/ohpc/pub/libs/gaussian/g16-A.03/sandybridge/g16/l401.exe)
 ExpMin= 9.52D-02 ExpMax= 1.36D+04 ExpMxC= 4.63D+02 IAcc=3 IRadAn=         5 AccDes= 0.00D+00
 Harris functional with IExCor=33909 and IRadAn=       5 diagonalized for initial guess.
 HarFok:  IExCor=33909 AccDes= 0.00D+00 IRadAn=         5 IDoV= 1 UseB2=F ITyADJ=14
 ICtDFT=  3500011 ScaDFX=  1.000000  1.000000  1.000000  1.000000
 FoFCou: FMM=F IPFlag=           0 FMFlag=      100000 FMFlg1=        2000
         NFxFlg=           0 DoJE=T BraDBF=F KetDBF=T FulRan=T
         wScrn=  0.000000 ICntrl=       500 IOpCl=  0 I1Cent=   200000004 NGrid=           0
         NMat0=    1 NMatS0=      1 NMatT0=    0 NMatD0=    1 NMtDS0=    0 NMtDT0=    0
 Petite list used in FoFCou.
 Harris En= -2116.58586294624    
 JPrj=0 DoOrth=F DoCkMO=F.
 Initial guess orbital symmetries:
 Alpha Orbitals:
       Occupied  (B1U) (AG) (B3G) (B2U) (B1U) (AG) (B2U) (AG) (B3G)
                 (B1U) (B1U) (B3G) (B2U) (AG) (B3G) (B1U) (B2U)
                 (AG) (B3G) (B1U) (B2U) (AG) (B3G) (B1U) (B2U)
                 (AG) (B3G) (B1U) (B2U) (AG) (B2U) (AG) (B3G) (B1U)
                 (B2U) (AG) (B2U) (AG) (B3G) (B1U) (B3G) (B1U)
                 (B2U) (AG) (B3G) (B1U) (B2U) (AG) (B1U) (B3G)
                 (AG) (B2U) (B1U) (B3G) (AG) (B1U) (AG) (B2U) (AG)
                 (B2U) (AG) (B1U) (B2U) (AG) (B2U) (AG) (B2U) (AG)
                 (B3G) (B1U) (B3G) (B1U) (AG) (B3G) (B1U) (B2U)
                 (B3G) (B1U) (AG) (B2U) (B3G) (B1U) (B1U) (B3G)
                 (B2U) (AG) (B2U) (B1U) (B3G) (AG) (AG) (B3G) (B2U)
                 (AG) (B2U) (B1U) (B2U) (AG) (AG) (B2U) (B3G) (B1U)
                 (AG) (B2U) (AG) (B1U) (B2U) (AG) (B3G) (B2U) (AG)
                 (B1U) (B2U) (AG) (B2U) (B1U) (B3G) (B3G) (B2U)
                 (AG) (AG) (B2U) (B3G) (B1U) (B1U) (B3G) (AG) (B3G)
                 (AG) (B2U) (B1U) (B1U) (B3G) (AG) (B1U) (B2U)
                 (B3G) (B3G) (B1U) (B3U) (B1G) (B3U) (AG) (B1U)
                 (B1G) (B3G) (B2U) (B3U) (B1U) (B2U) (AG) (B3G)
                 (B2G) (B1G) (B1U) (B2U) (B3U) (AG) (B3G) (B2U)
                 (B1G) (AG) (B2U) (AG) (B3U) (AU) (B2G) (AU) (B1G)
                 (B3U) (B2G) (AU) (B3U) (B2G) (B1G) (AU) (B3U)
                 (B2G) (B1G) (AU) (B2G) (AU) (B2G)
       Virtual   (B1G) (B3U) (B1G) (B3U) (AU) (B3U) (B2G) (B1G)
                 (AU) (B3U) (B2G) (B1G) (B3U) (B1G) (B3U) (B2G)
                 (AU) (B1G) (B2G) (AU) (B1U) (B3G) (AG) (AG) (B2U)
                 (B1U) (B2G) (B2U) (B3G) (AG) (B2U) (B3U) (AG)
                 (B1U) (AU) (B2U) (B3G) (AG) (B2G) (B1U) (B2U)
                 (AG) (AG) (AU) (B3G) (B1U) (B2U) (B2G) (AG) (AU)
                 (B3G) (B2U) (B1U) (AG) (AG) (B1U) (B2U) (B1U)
                 (B3G) (AG) (B2U) (B2U) (B1U) (B2U) (B2U) (AG)
                 (B3G) (B1U) (AG) (B2G) (B3G) (B3G) (B1U) (B1U)
                 (B2U) (B3G) (AG) (B3G) (B1U) (B3U) (B1U) (AG)
                 (B2U) (B3G) (B1G) (AG) (B3G) (B3G) (B3U) (B2U)
                 (AG) (B1U) (B1U) (B1G) (B1U) (B3G) (AG) (B2U)
                 (AG) (B2G) (B3G) (B3U) (B2U) (B2U) (B1U) (AG)
                 (B1G) (AU) (B3G) (B2U) (B1U) (AG) (B2U) (B2G)
                 (AU) (B3U) (AG) (AG) (B3G) (B2G) (AG) (B1G) (AU)
                 (B1U) (B2U) (B3U) (B2U) (B1U) (B2U) (B2G) (B3U)
                 (AG) (B2U) (B3G) (B1U) (B1G) (AG) (AU) (B1G) (B3U)
                 (B2U) (AG) (B1G) (B3U) (B2U) (B1U) (B3G) (B2G)
                 (B2U) (AG) (B1U) (B3U) (B3G) (B1G) (B1U) (AG)
                 (B3G) (B2G) (B2U) (B3U) (B1U) (B3G) (AG) (AU)
                 (B1G) (B1U) (B3G) (AG) (B2U) (B2G) (B3G) (AG)
                 (B1U) (B2U) (B2U) (AG) (B3G) (B3U) (AG) (B2U)
                 (AG) (B1G) (B1U) (B3G) (B1U) (B2U) (B1G) (B3G)
                 (B3U) (AU) (B1U) (AG) (B2U) (B3U) (B1U) (B3G)
                 (AG) (B2G) (B2U) (B1U) (B3G) (B3G) (AG) (B2U)
                 (B1U) (AU) (AG) (B1U) (B1G) (B2U) (AG) (B1U) (B3U)
                 (B3G) (AG) (B3G) (B2U) (AU) (B2G) (B3G) (B1U)
                 (B1G) (B2G) (B1U) (B3U) (AG) (B3G) (B1G) (AU)
                 (B1U) (B2U) (B3G) (B3G) (B2U) (B1U) (B2G) (B3U)
                 (AG) (B1U) (AU) (B1U) (B3G) (B2U) (B3G) (AG) (B2G)
                 (B1U) (B3U) (B3G) (B2U) (B3G) (B1G) (AG) (B2U)
                 (B1U) (AU) (AG) (B2U) (B1U) (B2G) (AG) (B3U) (B1U)
                 (B1G) (B3G) (AU) (B2U) (AG) (B2U) (AG) (B2G) (B2U)
                 (AG) (B3G) (B1U) (B1G) (AG) (B3G) (B3U) (B3U)
                 (B1U) (B3G) (B1U) (B2U) (B1U) (AG) (B3G) (B2U)
                 (B3G) (B1U) (B1G) (AU) (AG) (B1G) (B3G) (B1U)
                 (B2G) (B3U) (B1U) (B3G) (B1U) (B3G) (B2U) (B3G)
                 (B1U) (B1U) (AG) (B2U) (B3G) (B3U) (B1U) (B3G)
                 (B2G) (AU) (AG) (B1U) (B1G) (B1G) (AG) (B2U) (B1U)
                 (B3G) (B3G) (B2U) (B3U) (B1U) (AG) (AG) (B2U)
                 (B3G) (B2U) (AG) (B2G) (AU) (B2U) (AU) (B1U) (AG)
                 (B2G) (B3G) (B2U) (B1U) (B3U) (AG) (B1G) (B3U)
                 (B1U) (B3G) (B2G) (AU) (AU) (B1G) (B3G) (B2U)
                 (B2U) (AG) (AG) (B1U) (AG) (B2U) (AG) (B2U) (B1U)
                 (B3G) (B2G) (AG) (B3U) (B1G) (AU) (B3G) (B1U)
                 (AG) (B2U) (B2G) (AG) (B1U) (B2U) (B1U) (B1G)
                 (B3G) (AG) (B2U) (B3U) (AG) (B2U) (B3G) (AG) (B2U)
                 (AG) (B2U) (AU) (B1U) (AG) (AG) (B3G) (B2U) (B1U)
                 (B2G) (B2U) (B3U) (B1G) (AG) (B2U) (B3G) (AG)
                 (B1U) (B2U) (B3G) (B2U) (B1G) (B3G) (AG) (B1U)
                 (AU) (B2U) (B3G) (B3U) (B1U) (B2U) (B3G) (AG)
                 (B1U) (B2G) (AG) (AG) (B1G) (B1U) (B3U) (B2U)
                 (B3G) (AG) (B3U) (B2G) (B2U) (AU) (B1U) (B3G)
                 (B3G) (AU) (B1G) (AG) (B1U) (B2U) (B2U) (B2G)
                 (AG) (B2U) (B1U) (AU) (B1G) (B3G) (AG) (B3G) (B1U)
                 (B2U) (B2G) (B1U) (B3G) (AG) (B2U) (B3U) (B3G)
                 (AU) (B2G) (AU) (B1U) (AG) (B2U) (AG) (B2U) (B1U)
                 (B3U) (B2G) (B1U) (AG) (B3G) (B1G) (AG) (B3U)
                 (B3G) (AG) (B2U) (AU) (B1U) (B2G) (B1U) (B3G)
                 (B1G) (B1U) (B3U) (B2G) (AG) (AU) (B2U) (B3G)
                 (B3U) (B1G) (B1G) (B3U) (B2U) (AG) (B3U) (AG)
                 (B1G) (B3G) (B1G) (B2U) (B1U) (B3U) (B2U) (B3G)
                 (AG) (B2G) (AG) (B1U) (B3G) (B1U) (B3G) (B1G)
                 (B2U) (AG) (B3U) (B2G) (AU) (B2U) (B3G) (B1U)
                 (B1U) (B2U) (B2G) (AU) (B1G) (AG) (AG) (B2U) (B3G)
                 (AU) (B2U) (B2G) (B1G) (AG) (B1U) (B1U) (B3U)
                 (B3G) (B3U) (B2U) (AU) (B1U) (B2G) (B3G) (B3G)
                 (B1U) (AG) (B1G) (B3U) (B3G) (B1U) (B2U) (B3G)
                 (AG) (B1G) (B3U) (AG) (B1U) (B2G) (B2U) (B1U)
                 (B3G) (AU) (B3G) (B3U) (AG) (B2U) (B1U) (B3G)
                 (AU) (B2G) (B1U) (B1G) (B2U) (B3G) (AG) (B2G)
                 (B1U) (B3U) (B3G) (B1U) (B2U) (AG) (B1G) (AU)
                 (B3G) (B1U) (B2U) (B1U) (AG) (B2U) (AU) (B2G)
                 (B3G) (B3U) (B2G) (AG) (B2U) (B1G) (AU) (B3U)
                 (AG) (B1U) (AG) (B3G) (B2U) (AU) (AG) (B3U) (B2U)
                 (B1G) (B3G) (B1U) (B2U) (B2G) (AG) (B3G) (B1U)
                 (B2U) (B3G) (AG) (B1U) (B2U) (B3U) (AG) (B1U)
                 (AG) (B1G) (B2U) (B3G) (B2U) (AG) (AU) (B1U) (B2G)
                 (AG) (B2U) (B3G) (AG) (B2U) (B1U) (AU) (B2G) (B1U)
                 (AG) (B3G) (AU) (B2G) (B3G) (AG) (B1G) (B2G) (AU)
                 (B3U) (B2U) (B2U) (AU) (AG) (B2G) (B1U) (B2G)
                 (B1G) (B3G) (AU) (B1U) (B1U) (AG) (B3G) (B2U)
                 (B3U) (B1G) (B3U) (B2G) (AU) (B1G) (B1U) (AG)
                 (B3G) (B2G) (AG) (B1U) (B3G) (B3U) (B1U) (B2U)
                 (B3U) (B2U) (B1G) (B3G) (B1U) (AU) (B3G) (AG)
                 (B3G) (B1U) (B1U) (B3G) (B1U) (B1G) (B2G) (B2U)
                 (B3G) (B3U) (B1G) (B1U) (B2U) (B3U) (AG) (B3G)
                 (AU) (B1U) (B2G) (AU) (B2G) (B1G) (B3U) (B1G)
                 (B3G) (B2G) (AU) (B2U) (B3U) (B2G) (AG) (AU) (AG)
                 (B2G) (B1U) (AU) (B2G) (AU) (B3U) (B2U) (B2U)
                 (AG) (AG) (B2G) (B2U) (AU) (AG) (B1U) (B3G) (B1G)
                 (B3U) (B1G) (B3G) (B3U) (B1U) (B1G) (B2U) (AG)
                 (B3U) (B2G) (B3G) (B1U) (AU) (B2U) (B2G) (B1G)
                 (AG) (B3G) (AG) (B2U) (B1U) (B2U) (AG) (B3U) (AU)
                 (AG) (B2U) (B1G) (B3G) (B2U) (AG) (B2G) (B1U)
                 (B2U) (B3G) (B1G) (B3U) (AG) (B2U) (B2U) (B3G)
                 (AG) (B1U) (B3G) (AG) (B2U) (B1U) (AU) (B2U) (AG)
                 (B3G) (B1U) (B1U) (B2U) (B1U) (B2U) (AG) (B3G)
                 (B3G) (AG) (B2U) (B1U) (B3G) (B2G) (B3G) (AU)
                 (B1U) (AG) (B1U) (B2U) (AG) (B3G) (B2U) (AG) (B2G)
                 (B2U) (B3G) (B1U) (AU) (AG) (B3G) (B2G) (B1U)
                 (AU) (B3G) (B2G) (AU) (B1U) (AG) (B2U) (B1G) (B1U)
                 (B3G) (AG) (B2U) (B1U) (AG) (B2U) (AG) (B3U) (B3G)
                 (B2U) (B1U) (B2U) (AG) (B3G) (B3U) (B1G) (B2G)
                 (AU) (B3U) (B1U) (AG) (B2U) (B1G) (B3G) (B3U)
                 (B2G) (AU) (B3U) (B1U) (AG) (B2U) (AG) (B2U) (B1G)
                 (B3G) (B2U) (B1U) (AG) (B1G) (B3G) (B1U) (AG)
                 (B3G) (B2U) (B3U) (B1U) (B1G) (B3U) (AG) (B2U)
                 (B3G) (B3U) (AG) (B1G) (B3G) (B2U) (B1U) (AG)
                 (B3G) (AG) (B2U) (B1U) (B3G) (B1G) (B1U) (B2U)
                 (AG) (B3G) (AG) (B2U) (B1U) (B1U) (B3U) (AG) (B2U)
                 (B2G) (AU) (B2G) (B3G) (B3U) (B2U) (B1G) (B2U)
                 (B3G) (AG) (B1U) (B3U) (B1G) (B1U) (B2G) (B2U)
                 (B3G) (AU) (B3U) (B3G) (B1G) (B1U) (AG) (AG) (B2U)
                 (B1G) (B2G) (AU) (B3U) (B3U) (B3G) (AG) (B2U)
                 (B1G) (B3U) (AG) (B2G) (B1U) (B1U) (B1G) (AU)
                 (B3G) (AG) (B3U) (B2U) (B1U) (B3G) (B2G) (AG)
                 (B2U) (AU) (B1G) (B3U) (AU) (B1U) (B1G) (B2G)
                 (B2G) (B3U) (B3G) (AU) (B2U) (B1U) (AG) (B2U)
                 (B1G) (B3G) (B3U) (AG) (B1U) (B3U) (B3G) (B1G)
                 (AG) (B1U) (B1U) (B2U) (B3G) (B2U) (B3U) (B1G)
                 (B2G) (B1U) (AG) (B3G) (B2U) (AU) (AG) (B1U) (AG)
                 (B2G) (B1G) (B2U) (B3G) (AU) (B2G) (AU) (AG) (B3U)
                 (B2G) (AU) (B2U) (AG) (B1G) (B1U) (B2G) (B1U)
                 (B3G) (AG) (B3G) (B2U) (B2U) (B1G) (AG) (B1U)
                 (B3G) (AU) (B2G) (B1U) (B3U) (B3G) (AG) (B1U)
                 (B2U) (AU) (B2G) (B3U) (B1G) (B3G) (B3U) (AG)
                 (B3G) (B1G) (B3U) (B2U) (B1U) (B1G) (B1U) (B1U)
                 (B3U) (AG) (B3G) (AU) (B2U) (B1G) (B3U) (B1U)
                 (AG) (B3G) (B2U) (B1U) (B3U) (B3G) (B1G) (B2U)
                 (B1U) (AG) (B2G) (B3G) (B3G) (B3U) (B2U) (B1U)
                 (AG) (B1U) (B2U) (B1G) (AG) (B3U) (B2G) (B1G)
                 (B3G) (B2U) (B1U) (AU) (B3U) (B3G) (B2G) (B1U)
                 (B3G) (AG) (B1G) (AG) (B3U) (B2U) (B1U) (AG) (B3U)
                 (AU) (B1G) (B3G) (B2G) (B2G) (B2U) (AG) (AU) (B2U)
                 (AG) (B2U) (B3G) (B2U) (B3U) (B1G) (AG) (B1U)
                 (B1G) (AG) (B2U) (B2G) (B1U) (B3U) (AU) (AG) (B3G)
                 (B2U) (AG) (B1U) (B2U) (AU) (B1G) (B2G) (B3G)
                 (AG) (B2U) (B1U) (B3G) (AU) (B2G) (B3U) (AG) (B1G)
                 (B3U) (B2U) (B3G) (AG) (B2U) (B1G) (AU) (B2G)
                 (AG) (B2U) (B3U) (B1U) (AU) (B1U) (B3G) (B2U)
                 (B1G) (B3U) (B2G) (AU) (AG) (B3G) (B1U) (B2U)
                 (B1G) (AU) (B2G) (B3U) (AU) (AG) (B2G) (B2U) (B1U)
                 (B3G) (AG) (B1G) (B1G) (B3U) (B1U) (B3G) (B3U)
                 (AU) (B1G) (B2G) (AU) (B1U) (AG) (B2G) (AU) (AG)
                 (B2U) (B3G) (B3G) (B1G) (B2U) (B1U) (B3U) (AG)
                 (B2U) (B2G) (B3U) (B1U) (AG) (B2U) (B3G) (B1G)
                 (B1U) (AG) (B3G) (B1U) (B3U) (B3G) (B2U) (AU)
                 (B1U) (B2G) (B3G) (B1G) (AG) (AU) (B1U) (B3G)
                 (B1U) (AG) (B2U) (B2G) (B3G) (B1U) (B3U) (AU)
                 (B3G) (B1G) (B2U) (B1U) (B3G) (B2G) (AG) (AU)
                 (B3G) (B1U) (B3U) (B1G) (AG) (B2U) (B2G) (AG)
                 (B2U) (B3U) (AU) (B3G) (B1U) (AG) (B2G) (AU) (B3U)
                 (B2U) (B1U) (B1G) (B3G) (B1G) (B2G) (AU) (B1U)
                 (B2U) (AU) (AG) (B2G) (B3U) (B2U) (B2G) (AU) (B1G)
                 (AG) (B1U) (B3U) (B3G) (B2G) (B1U) (B1G) (AU)
                 (AG) (AU) (B3U) (B3G) (B2U) (B3G) (B1G) (B2G)
                 (B1U) (AG) (B3U) (B2U) (B2U) (B1G) (B2G) (B3G)
                 (B1U) (B1G) (AG) (B2G) (B2U) (AG) (B1U) (B2U)
                 (B3G) (AU) (AU) (B2G) (B3G) (B2G) (AU) (B3U) (B2U)
                 (AG) (B1U) (B2G) (B2U) (AG) (AU) (AU) (B3G) (B2G)
                 (AG) (B3G) (B1U) (B2U) (AG) (AU) (B2G) (B1G) (AG)
                 (B2U) (B1U) (B3G) (AG) (B2U) (B1U) (B1U) (B3G)
                 (B2G) (B3G) (AU) (B3U) (B1U) (B3G) (B1U) (AG)
                 (B3G) (B2U) (B1U) (AG) (B3G) (B3U) (B2U) (B2U)
                 (AU) (B1U) (B3G) (AG) (B2G) (AU) (B3G) (B2U) (B1U)
                 (AG) (B2G) (B2U) (AG) (B1U) (B1G) (B3G) (B1U)
                 (B3G) (AG) (B2U) (B3U) (B1U) (B3G) (AG) (B1U)
                 (B2U) (B1U) (B3G) (B3G) (AG) (B2U) (B1U) (AG)
                 (B1U) (B2U) (B3G) (AG) (B2U) (AG) (B1U) (B2G)
                 (B3G) (B2U) (B1G) (AU) (B3G) (B2U) (B1U) (AG)
                 (B3G) (B3U) (B1U) (B1G) (B3G) (B1U) (B3U) (B2G)
                 (B3U) (B1U) (AG) (B1G) (B3G) (AU) (B2G) (B3G)
                 (B1U) (AU) (B3U) (B2U) (B2G) (B1U) (B1G) (B3G)
                 (B1U) (B2G) (B1G) (AU) (B1G) (AU) (B3U) (AG) (B2G)
                 (B2U) (B3U) (AG) (B2U) (B1U) (B3G) (B1G) (AU)
                 (AG) (B3G) (B1U) (B3U) (B3G) (B1G) (B1U) (B1G)
                 (B2G) (B2U) (AG) (B2U) (B3G) (B2U) (AG) (B3U)
                 (AG) (AU) (B2U) (B2G) (B1U) (B3G) (B3U) (B3G)
                 (B1G) (AG) (B3U) (B2G) (AU) (B2U) (B2U) (AG) (B2U)
                 (AG) (B1U) (B1G) (B3U) (AG) (B2U) (B1U) (B3G)
                 (AG) (AU) (B1G) (B1U) (B2U) (B3U) (B3G) (B3U)
                 (B1G) (B1U) (AU) (AG) (B2U) (B3G) (AG) (B2G) (B1U)
                 (AU) (B2G) (B2G) (B1U) (B2U) (AU) (AG) (B3G) (AU)
                 (B1U) (B2U) (B3G) (AG) (B2G) (B2G) (B1U) (AG)
                 (B2U) (B3G) (AG) (AU) (B2U) (B1U) (B3G) (B1G)
                 (B2G) (B1U) (B3G) (B3U) (AU) (B2U) (AG) (B2G)
                 (B1U) (B2U) (B3G) (B3G) (AG) (B2U) (B1U) (AG)
                 (AU) (B2U) (B2G) (B3G) (AG) (B1U) (B2U) (B3G)
                 (AG) (B2U) (B3G) (AU) (B1U) (B1U) (B2G) (B3G)
                 (B3G) (B1U) (AG) (B1U) (AG) (B2U) (B2G) (AU) (B3G)
                 (B1U) (AU) (B2G) (B3G) (B2U) (B1U) (B1U) (AG)
                 (B3G) (AG) (B2U) (AG) (B2G) (B2U) (AU) (B3G) (AG)
                 (B1U) (B2U) (AG) (B3G) (AG) (B2U) (B1U) (B2U)
                 (B2U) (AG) (B3G) (B1U) (AG) (B1U) (B3G) (B2U)
                 (AG) (B1U) (B2U) (B1U) (B2U) (B3G) (AG) (B3G)
                 (B1U) (AG) (B2U) (B2U) (AG) (B3G) (B1U) (B2U)
                 (AG) (B3G) (B1U) (B1U) (AG) (B2U) (B3G) (B1U)
                 (B3G) (AG) (B3G) (B1U) (B2U) (B3G) (AG) (B2U)
                 (B3G) (B1U) (B2U) (AG) (B1U) (B3G) (B1U) (B3G)
                 (B1U) (B3G) (B3G) (B1U) (B3G) (B1U) (AG) (B1U)
                 (B3G) (B1U) (B3G) (B1U) (B3G) (B3G) (B1U) (B2U)
                 (B3G) (B1U) (B1U) (B3G) (B3G) (B1U) (B1U) (B3G)
                 (B1U) (B3G) (AG) (B2U) (AG) (B2U) (B1U) (B3G)
                 (AG) (B2U) (AG) (B1U) (B2U) (AG) (B2U) (AG) (B2U)
                 (AG) (B2U) (B3G) (AG) (B1U) (B3G) (AG) (B2U) (B1U)
                 (B1U) (B3G) (B2U) (AG) (B2U) (AG) (B1U) (B3G)
                 (AG) (B2U) (AG) (B1U) (B1U) (B3G) (B2U) (B3G)
                 (B2U) (AG) (B1U) (B3G) (B1U) (B3G) (B1U) (B3G)
                 (AG) (B1U) (B3G) (B1U) (B3G) (B1U) (B3G) (B1U)
 Beta  Orbitals:
       Occupied  (B1U) (AG) (B3G) (B2U) (B1U) (AG) (B2U) (AG) (B3G)
                 (B1U) (B1U) (B3G) (B2U) (AG) (B3G) (B1U) (B2U)
                 (AG) (B3G) (B1U) (B2U) (AG) (B3G) (B1U) (B2U)
                 (AG) (B3G) (B1U) (B2U) (AG) (B2U) (AG) (B3G) (B1U)
                 (B2U) (AG) (B2U) (AG) (B3G) (B1U) (B3G) (B1U)
                 (B2U) (AG) (B3G) (B1U) (B2U) (AG) (B1U) (B3G)
                 (AG) (B2U) (B1U) (B3G) (AG) (B1U) (AG) (B2U) (AG)
                 (B2U) (AG) (B1U) (B2U) (AG) (B2U) (AG) (B2U) (AG)
                 (B3G) (B1U) (B3G) (B1U) (AG) (B3G) (B1U) (B2U)
                 (B3G) (B1U) (AG) (B2U) (B3G) (B1U) (B1U) (B3G)
                 (B2U) (AG) (B2U) (B1U) (B3G) (AG) (AG) (B3G) (B2U)
                 (AG) (B2U) (B1U) (B2U) (AG) (AG) (B2U) (B3G) (B1U)
                 (AG) (B2U) (AG) (B1U) (B2U) (AG) (B3G) (B2U) (AG)
                 (B1U) (B2U) (AG) (B2U) (B1U) (B3G) (B3G) (B2U)
                 (AG) (AG) (B2U) (B3G) (B1U) (B1U) (B3G) (AG) (B3G)
                 (AG) (B2U) (B1U) (B1U) (B3G) (AG) (B1U) (B2U)
                 (B3G) (B3G) (B1U) (B3U) (B1G) (B3U) (AG) (B1U)
                 (B1G) (B3G) (B2U) (B3U) (B1U) (B2U) (AG) (B3G)
                 (B2G) (B1G) (B1U) (B2U) (B3U) (AG) (B3G) (B2U)
                 (B1G) (AG) (B2U) (AG) (B3U) (AU) (B2G) (AU) (B1G)
                 (B3U) (B2G) (AU) (B3U) (B2G) (B1G) (AU) (B3U)
                 (B2G) (B1G) (AU) (B2G) (AU) (B2G)
       Virtual   (B1G) (B3U) (B1G) (B3U) (AU) (B3U) (B2G) (B1G)
                 (AU) (B3U) (B2G) (B1G) (B3U) (B1G) (B3U) (B2G)
                 (AU) (B1G) (B2G) (AU) (B1U) (B3G) (AG) (AG) (B2U)
                 (B1U) (B2G) (B2U) (B3G) (AG) (B2U) (B3U) (AG)
                 (B1U) (AU) (B2U) (B3G) (AG) (B2G) (B1U) (B2U)
                 (AG) (AG) (AU) (B3G) (B1U) (B2U) (B2G) (AG) (AU)
                 (B3G) (B2U) (B1U) (AG) (AG) (B1U) (B2U) (B1U)
                 (B3G) (AG) (B2U) (B2U) (B1U) (B2U) (B2U) (AG)
                 (B3G) (B1U) (AG) (B2G) (B3G) (B3G) (B1U) (B1U)
                 (B2U) (B3G) (AG) (B3G) (B1U) (B3U) (B1U) (AG)
                 (B2U) (B3G) (B1G) (AG) (B3G) (B3G) (B3U) (B2U)
                 (AG) (B1U) (B1U) (B1G) (B1U) (B3G) (AG) (B2U)
                 (AG) (B2G) (B3G) (B3U) (B2U) (B2U) (B1U) (AG)
                 (B1G) (AU) (B3G) (B2U) (B1U) (AG) (B2U) (B2G)
                 (AU) (B3U) (AG) (AG) (B3G) (B2G) (AG) (B1G) (AU)
                 (B1U) (B2U) (B3U) (B2U) (B1U) (B2U) (B2G) (B3U)
                 (AG) (B2U) (B3G) (B1U) (B1G) (AG) (AU) (B1G) (B3U)
                 (B2U) (AG) (B1G) (B3U) (B2U) (B1U) (B3G) (B2G)
                 (B2U) (AG) (B1U) (B3U) (B3G) (B1G) (B1U) (AG)
                 (B3G) (B2G) (B2U) (B3U) (B1U) (B3G) (AG) (AU)
                 (B1G) (B1U) (B3G) (AG) (B2U) (B2G) (B3G) (AG)
                 (B1U) (B2U) (B2U) (AG) (B3G) (B3U) (AG) (B2U)
                 (AG) (B1G) (B1U) (B3G) (B1U) (B2U) (B1G) (B3G)
                 (B3U) (AU) (B1U) (AG) (B2U) (B3U) (B1U) (B3G)
                 (AG) (B2G) (B2U) (B1U) (B3G) (B3G) (AG) (B2U)
                 (B1U) (AU) (AG) (B1U) (B1G) (B2U) (AG) (B1U) (B3U)
                 (B3G) (AG) (B3G) (B2U) (AU) (B2G) (B3G) (B1U)
                 (B1G) (B2G) (B1U) (B3U) (AG) (B3G) (B1G) (AU)
                 (B1U) (B2U) (B3G) (B3G) (B2U) (B1U) (B2G) (B3U)
                 (AG) (B1U) (AU) (B1U) (B3G) (B2U) (B3G) (AG) (B2G)
                 (B1U) (B3U) (B3G) (B2U) (B3G) (B1G) (AG) (B2U)
                 (B1U) (AU) (AG) (B2U) (B1U) (B2G) (AG) (B3U) (B1U)
                 (B1G) (B3G) (AU) (B2U) (AG) (B2U) (AG) (B2G) (B2U)
                 (AG) (B3G) (B1U) (B1G) (AG) (B3G) (B3U) (B3U)
                 (B1U) (B3G) (B1U) (B2U) (B1U) (AG) (B3G) (B2U)
                 (B3G) (B1U) (B1G) (AU) (AG) (B1G) (B3G) (B1U)
                 (B2G) (B3U) (B1U) (B3G) (B1U) (B3G) (B2U) (B3G)
                 (B1U) (B1U) (AG) (B2U) (B3G) (B3U) (B1U) (B3G)
                 (B2G) (AU) (AG) (B1U) (B1G) (B1G) (AG) (B2U) (B1U)
                 (B3G) (B3G) (B2U) (B3U) (B1U) (AG) (AG) (B2U)
                 (B3G) (B2U) (AG) (B2G) (AU) (B2U) (AU) (B1U) (AG)
                 (B2G) (B3G) (B2U) (B1U) (B3U) (AG) (B1G) (B3U)
                 (B1U) (B3G) (B2G) (AU) (AU) (B1G) (B3G) (B2U)
                 (B2U) (AG) (AG) (B1U) (AG) (B2U) (AG) (B2U) (B1U)
                 (B3G) (B2G) (AG) (B3U) (B1G) (AU) (B3G) (B1U)
                 (AG) (B2U) (B2G) (AG) (B1U) (B2U) (B1U) (B1G)
                 (B3G) (AG) (B2U) (B3U) (AG) (B2U) (B3G) (AG) (B2U)
                 (AG) (B2U) (AU) (B1U) (AG) (AG) (B3G) (B2U) (B1U)
                 (B2G) (B2U) (B3U) (B1G) (AG) (B2U) (B3G) (AG)
                 (B1U) (B2U) (B3G) (B2U) (B1G) (B3G) (AG) (B1U)
                 (AU) (B2U) (B3G) (B3U) (B1U) (B2U) (B3G) (AG)
                 (B1U) (B2G) (AG) (AG) (B1G) (B1U) (B3U) (B2U)
                 (B3G) (AG) (B3U) (B2G) (B2U) (AU) (B1U) (B3G)
                 (B3G) (AU) (B1G) (AG) (B1U) (B2U) (B2U) (B2G)
                 (AG) (B2U) (B1U) (AU) (B1G) (B3G) (AG) (B3G) (B1U)
                 (B2U) (B2G) (B1U) (B3G) (AG) (B2U) (B3U) (B3G)
                 (AU) (B2G) (AU) (B1U) (AG) (B2U) (AG) (B2U) (B1U)
                 (B3U) (B2G) (B1U) (AG) (B3G) (B1G) (AG) (B3U)
                 (B3G) (AG) (B2U) (AU) (B1U) (B2G) (B1U) (B3G)
                 (B1G) (B1U) (B3U) (B2G) (AG) (AU) (B2U) (B3G)
                 (B3U) (B1G) (B1G) (B3U) (B2U) (AG) (B3U) (AG)
                 (B1G) (B3G) (B1G) (B2U) (B1U) (B3U) (B2U) (B3G)
                 (AG) (B2G) (AG) (B1U) (B3G) (B1U) (B3G) (B1G)
                 (B2U) (AG) (B3U) (B2G) (AU) (B2U) (B3G) (B1U)
                 (B1U) (B2U) (B2G) (AU) (B1G) (AG) (AG) (B2U) (B3G)
                 (AU) (B2U) (B2G) (B1G) (AG) (B1U) (B1U) (B3U)
                 (B3G) (B3U) (B2U) (AU) (B1U) (B2G) (B3G) (B3G)
                 (B1U) (AG) (B1G) (B3U) (B3G) (B1U) (B2U) (B3G)
                 (AG) (B1G) (B3U) (AG) (B1U) (B2G) (B2U) (B1U)
                 (B3G) (AU) (B3G) (B3U) (AG) (B2U) (B1U) (B3G)
                 (AU) (B2G) (B1U) (B1G) (B2U) (B3G) (AG) (B2G)
                 (B1U) (B3U) (B3G) (B1U) (B2U) (AG) (B1G) (AU)
                 (B3G) (B1U) (B2U) (B1U) (AG) (B2U) (AU) (B2G)
                 (B3G) (B3U) (B2G) (AG) (B2U) (B1G) (AU) (B3U)
                 (AG) (B1U) (AG) (B3G) (B2U) (AU) (AG) (B3U) (B2U)
                 (B1G) (B3G) (B1U) (B2U) (B2G) (AG) (B3G) (B1U)
                 (B2U) (B3G) (AG) (B1U) (B2U) (B3U) (AG) (B1U)
                 (AG) (B1G) (B2U) (B3G) (B2U) (AG) (AU) (B1U) (B2G)
                 (AG) (B2U) (B3G) (AG) (B2U) (B1U) (AU) (B2G) (B1U)
                 (AG) (B3G) (AU) (B2G) (B3G) (AG) (B1G) (B2G) (AU)
                 (B3U) (B2U) (B2U) (AU) (AG) (B2G) (B1U) (B2G)
                 (B1G) (B3G) (AU) (B1U) (B1U) (AG) (B3G) (B2U)
                 (B3U) (B1G) (B3U) (B2G) (AU) (B1G) (B1U) (AG)
                 (B3G) (B2G) (AG) (B1U) (B3G) (B3U) (B1U) (B2U)
                 (B3U) (B2U) (B1G) (B3G) (B1U) (AU) (B3G) (AG)
                 (B3G) (B1U) (B1U) (B3G) (B1U) (B1G) (B2G) (B2U)
                 (B3G) (B3U) (B1G) (B1U) (B2U) (B3U) (AG) (B3G)
                 (AU) (B1U) (B2G) (AU) (B2G) (B1G) (B3U) (B1G)
                 (B3G) (B2G) (AU) (B2U) (B3U) (B2G) (AG) (AU) (AG)
                 (B2G) (B1U) (AU) (B2G) (AU) (B3U) (B2U) (B2U)
                 (AG) (AG) (B2G) (B2U) (AU) (AG) (B1U) (B3G) (B1G)
                 (B3U) (B1G) (B3G) (B3U) (B1U) (B1G) (B2U) (AG)
                 (B3U) (B2G) (B3G) (B1U) (AU) (B2U) (B2G) (B1G)
                 (AG) (B3G) (AG) (B2U) (B1U) (B2U) (AG) (B3U) (AU)
                 (AG) (B2U) (B1G) (B3G) (B2U) (AG) (B2G) (B1U)
                 (B2U) (B3G) (B1G) (B3U) (AG) (B2U) (B2U) (B3G)
                 (AG) (B1U) (B3G) (AG) (B2U) (B1U) (AU) (B2U) (AG)
                 (B3G) (B1U) (B1U) (B2U) (B1U) (B2U) (AG) (B3G)
                 (B3G) (AG) (B2U) (B1U) (B3G) (B2G) (B3G) (AU)
                 (B1U) (AG) (B1U) (B2U) (AG) (B3G) (B2U) (AG) (B2G)
                 (B2U) (B3G) (B1U) (AU) (AG) (B3G) (B2G) (B1U)
                 (AU) (B3G) (B2G) (AU) (B1U) (AG) (B2U) (B1G) (B1U)
                 (B3G) (AG) (B2U) (B1U) (AG) (B2U) (AG) (B3U) (B3G)
                 (B2U) (B1U) (B2U) (AG) (B3G) (B3U) (B1G) (B2G)
                 (AU) (B3U) (B1U) (AG) (B2U) (B1G) (B3G) (B3U)
                 (B2G) (AU) (B3U) (B1U) (AG) (B2U) (AG) (B2U) (B1G)
                 (B3G) (B2U) (B1U) (AG) (B1G) (B3G) (B1U) (AG)
                 (B3G) (B2U) (B3U) (B1U) (B1G) (B3U) (AG) (B2U)
                 (B3G) (B3U) (AG) (B1G) (B3G) (B2U) (B1U) (AG)
                 (B3G) (AG) (B2U) (B1U) (B3G) (B1G) (B1U) (B2U)
                 (AG) (B3G) (AG) (B2U) (B1U) (B1U) (B3U) (AG) (B2U)
                 (B2G) (AU) (B2G) (B3G) (B3U) (B2U) (B1G) (B2U)
                 (B3G) (AG) (B1U) (B3U) (B1G) (B1U) (B2G) (B2U)
                 (B3G) (AU) (B3U) (B3G) (B1G) (B1U) (AG) (AG) (B2U)
                 (B1G) (B2G) (AU) (B3U) (B3U) (B3G) (AG) (B2U)
                 (B1G) (B3U) (AG) (B2G) (B1U) (B1U) (B1G) (AU)
                 (B3G) (AG) (B3U) (B2U) (B1U) (B3G) (B2G) (AG)
                 (B2U) (AU) (B1G) (B3U) (AU) (B1U) (B1G) (B2G)
                 (B2G) (B3U) (B3G) (AU) (B2U) (B1U) (AG) (B2U)
                 (B1G) (B3G) (B3U) (AG) (B1U) (B3U) (B3G) (B1G)
                 (AG) (B1U) (B1U) (B2U) (B3G) (B2U) (B3U) (B1G)
                 (B2G) (B1U) (AG) (B3G) (B2U) (AU) (AG) (B1U) (AG)
                 (B2G) (B1G) (B2U) (B3G) (AU) (B2G) (AU) (AG) (B3U)
                 (B2G) (AU) (B2U) (AG) (B1G) (B1U) (B2G) (B1U)
                 (B3G) (AG) (B3G) (B2U) (B2U) (B1G) (AG) (B1U)
                 (B3G) (AU) (B2G) (B1U) (B3U) (B3G) (AG) (B1U)
                 (B2U) (AU) (B2G) (B3U) (B1G) (B3G) (B3U) (AG)
                 (B3G) (B1G) (B3U) (B2U) (B1U) (B1G) (B1U) (B1U)
                 (B3U) (AG) (B3G) (AU) (B2U) (B1G) (B3U) (B1U)
                 (AG) (B3G) (B2U) (B1U) (B3U) (B3G) (B1G) (B2U)
                 (B1U) (AG) (B2G) (B3G) (B3G) (B3U) (B2U) (B1U)
                 (AG) (B1U) (B2U) (B1G) (AG) (B3U) (B2G) (B1G)
                 (B3G) (B2U) (B1U) (AU) (B3U) (B3G) (B2G) (B1U)
                 (B3G) (AG) (B1G) (AG) (B3U) (B2U) (B1U) (AG) (B3U)
                 (AU) (B1G) (B3G) (B2G) (B2G) (B2U) (AG) (AU) (B2U)
                 (AG) (B2U) (B3G) (B2U) (B3U) (B1G) (AG) (B1U)
                 (B1G) (AG) (B2U) (B2G) (B1U) (B3U) (AU) (AG) (B3G)
                 (B2U) (AG) (B1U) (B2U) (AU) (B1G) (B2G) (B3G)
                 (AG) (B2U) (B1U) (B3G) (AU) (B2G) (B3U) (AG) (B1G)
                 (B3U) (B2U) (B3G) (AG) (B2U) (B1G) (AU) (B2G)
                 (AG) (B2U) (B3U) (B1U) (AU) (B1U) (B3G) (B2U)
                 (B1G) (B3U) (B2G) (AU) (AG) (B3G) (B1U) (B2U)
                 (B1G) (AU) (B2G) (B3U) (AU) (AG) (B2G) (B2U) (B1U)
                 (B3G) (AG) (B1G) (B1G) (B3U) (B1U) (B3G) (B3U)
                 (AU) (B1G) (B2G) (AU) (B1U) (AG) (B2G) (AU) (AG)
                 (B2U) (B3G) (B3G) (B1G) (B2U) (B1U) (B3U) (AG)
                 (B2U) (B2G) (B3U) (B1U) (AG) (B2U) (B3G) (B1G)
                 (B1U) (AG) (B3G) (B1U) (B3U) (B3G) (B2U) (AU)
                 (B1U) (B2G) (B3G) (B1G) (AG) (AU) (B1U) (B3G)
                 (B1U) (AG) (B2U) (B2G) (B3G) (B1U) (B3U) (AU)
                 (B3G) (B1G) (B2U) (B1U) (B3G) (B2G) (AG) (AU)
                 (B3G) (B1U) (B3U) (B1G) (AG) (B2U) (B2G) (AG)
                 (B2U) (B3U) (AU) (B3G) (B1U) (AG) (B2G) (AU) (B3U)
                 (B2U) (B1U) (B1G) (B3G) (B1G) (B2G) (AU) (B1U)
                 (B2U) (AU) (AG) (B2G) (B3U) (B2U) (B2G) (AU) (B1G)
                 (AG) (B1U) (B3U) (B3G) (B2G) (B1U) (B1G) (AU)
                 (AG) (AU) (B3U) (B3G) (B2U) (B3G) (B1G) (B2G)
                 (B1U) (AG) (B3U) (B2U) (B2U) (B1G) (B2G) (B3G)
                 (B1U) (B1G) (AG) (B2G) (B2U) (AG) (B1U) (B2U)
                 (B3G) (AU) (AU) (B2G) (B3G) (B2G) (AU) (B3U) (B2U)
                 (AG) (B1U) (B2G) (B2U) (AG) (AU) (AU) (B3G) (B2G)
                 (AG) (B3G) (B1U) (B2U) (AG) (AU) (B2G) (B1G) (AG)
                 (B2U) (B1U) (B3G) (AG) (B2U) (B1U) (B1U) (B3G)
                 (B2G) (B3G) (AU) (B3U) (B1U) (B3G) (B1U) (AG)
                 (B3G) (B2U) (B1U) (AG) (B3G) (B3U) (B2U) (B2U)
                 (AU) (B1U) (B3G) (AG) (B2G) (AU) (B3G) (B2U) (B1U)
                 (AG) (B2G) (B2U) (AG) (B1U) (B1G) (B3G) (B1U)
                 (B3G) (AG) (B2U) (B3U) (B1U) (B3G) (AG) (B1U)
                 (B2U) (B1U) (B3G) (B3G) (AG) (B2U) (B1U) (AG)
                 (B1U) (B2U) (B3G) (AG) (B2U) (AG) (B1U) (B2G)
                 (B3G) (B2U) (B1G) (AU) (B3G) (B2U) (B1U) (AG)
                 (B3G) (B3U) (B1U) (B1G) (B3G) (B1U) (B3U) (B2G)
                 (B3U) (B1U) (AG) (B1G) (B3G) (AU) (B2G) (B3G)
                 (B1U) (AU) (B3U) (B2U) (B2G) (B1U) (B1G) (B3G)
                 (B1U) (B2G) (B1G) (AU) (B1G) (AU) (B3U) (AG) (B2G)
                 (B2U) (B3U) (AG) (B2U) (B1U) (B3G) (B1G) (AU)
                 (AG) (B3G) (B1U) (B3U) (B3G) (B1G) (B1U) (B1G)
                 (B2G) (B2U) (AG) (B2U) (B3G) (B2U) (AG) (B3U)
                 (AG) (AU) (B2U) (B2G) (B1U) (B3G) (B3U) (B3G)
                 (B1G) (AG) (B3U) (B2G) (AU) (B2U) (B2U) (AG) (B2U)
                 (AG) (B1U) (B1G) (B3U) (AG) (B2U) (B1U) (B3G)
                 (AG) (AU) (B1G) (B1U) (B2U) (B3U) (B3G) (B3U)
                 (B1G) (B1U) (AU) (AG) (B2U) (B3G) (AG) (B2G) (B1U)
                 (AU) (B2G) (B2G) (B1U) (B2U) (AU) (AG) (B3G) (AU)
                 (B1U) (B2U) (B3G) (AG) (B2G) (B2G) (B1U) (AG)
                 (B2U) (B3G) (AG) (AU) (B2U) (B1U) (B3G) (B1G)
                 (B2G) (B1U) (B3G) (B3U) (AU) (B2U) (AG) (B2G)
                 (B1U) (B2U) (B3G) (B3G) (AG) (B2U) (B1U) (AG)
                 (AU) (B2U) (B2G) (B3G) (AG) (B1U) (B2U) (B3G)
                 (AG) (B2U) (B3G) (AU) (B1U) (B1U) (B2G) (B3G)
                 (B3G) (B1U) (AG) (B1U) (AG) (B2U) (B2G) (AU) (B3G)
                 (B1U) (AU) (B2G) (B3G) (B2U) (B1U) (B1U) (AG)
                 (B3G) (AG) (B2U) (AG) (B2G) (B2U) (AU) (B3G) (AG)
                 (B1U) (B2U) (AG) (B3G) (AG) (B2U) (B1U) (B2U)
                 (B2U) (AG) (B3G) (B1U) (AG) (B1U) (B3G) (B2U)
                 (AG) (B1U) (B2U) (B1U) (B2U) (B3G) (AG) (B3G)
                 (B1U) (AG) (B2U) (B2U) (AG) (B3G) (B1U) (B2U)
                 (AG) (B3G) (B1U) (B1U) (AG) (B2U) (B3G) (B1U)
                 (B3G) (AG) (B3G) (B1U) (B2U) (B3G) (AG) (B2U)
                 (B3G) (B1U) (B2U) (AG) (B1U) (B3G) (B1U) (B3G)
                 (B1U) (B3G) (B3G) (B1U) (B3G) (B1U) (AG) (B1U)
                 (B3G) (B1U) (B3G) (B1U) (B3G) (B3G) (B1U) (B2U)
                 (B3G) (B1U) (B1U) (B3G) (B3G) (B1U) (B1U) (B3G)
                 (B1U) (B3G) (AG) (B2U) (AG) (B2U) (B1U) (B3G)
                 (AG) (B2U) (AG) (B1U) (B2U) (AG) (B2U) (AG) (B2U)
                 (AG) (B2U) (B3G) (AG) (B1U) (B3G) (AG) (B2U) (B1U)
                 (B1U) (B3G) (B2U) (AG) (B2U) (AG) (B1U) (B3G)
                 (AG) (B2U) (AG) (B1U) (B1U) (B3G) (B2U) (B3G)
                 (B2U) (AG) (B1U) (B3G) (B1U) (B3G) (B1U) (B3G)
                 (AG) (B1U) (B3G) (B1U) (B3G) (B1U) (B3G) (B1U)
 The electronic state of the initial guess is 1-AG.
 Initial guess <Sx>= 0.0000 <Sy>= 0.0000 <Sz>= 0.0000 <S**2>=-0.0000 S=-0.0000
 Leave Link  401 at Mon Feb  3 18:20:53 2020, MaxMem=  6710886400 cpu:             149.1 elap:               9.4
 (Enter /opt/ohpc/pub/libs/gaussian/g16-A.03/sandybridge/g16/l502.exe)
 Integral symmetry usage will be decided dynamically.
 UHF open shell SCF:
 Using DIIS extrapolation, IDIIS=  1040.
 NGot=  6710886400 LenX=  6701153974 LenY=  6696329362
 Requested convergence on RMS density matrix=1.00D-08 within 128 cycles.
 Requested convergence on MAX density matrix=1.00D-06.
 Requested convergence on             energy=1.00D-06.
 No special actions if energy rises.
 Fock matrices will be formed incrementally for  20 cycles.
 Integral accuracy reduced to 1.0D-05 until final iterations.

 Cycle   1  Pass 0  IDiag  1:
 FoFJK:  IHMeth= 1 ICntrl=       0 DoSepK=T KAlg= 0 I1Cent=           0 FoldK=F
 IRaf=         1 NMat=       1 IRICut=       1 DoRegI=T DoRafI=F ISym2E= 1 IDoP0=0 IntGTp=1.
 FoFCou: FMM=F IPFlag=           0 FMFlag=      100000 FMFlg1=        2000
         NFxFlg=           0 DoJE=T BraDBF=F KetDBF=F FulRan=T
         wScrn=  0.000000 ICntrl=       500 IOpCl=  0 I1Cent=           0 NGrid=           0
         NMat0=    1 NMatS0=      1 NMatT0=    0 NMatD0=    1 NMtDS0=    0 NMtDT0=    0
 Petite list used in FoFCou.
 E= -2150.02757832498    
 DIIS: error= 2.12D-02 at cycle   1 NSaved=   1.
 NSaved= 1 IEnMin= 1 EnMin= -2150.02757832498     IErMin= 1 ErrMin= 2.12D-02
 ErrMax= 2.12D-02  0.00D+00 EMaxC= 1.00D-01 BMatC= 2.90D+00 BMatP= 2.90D+00
 IDIUse=3 WtCom= 7.88D-01 WtEn= 2.12D-01
 Coeff-Com:  0.100D+01
 Coeff-En:   0.100D+01
 Coeff:      0.100D+01
 Gap=     0.162 Goal=   None    Shift=    0.000
 Gap=     0.162 Goal=   None    Shift=    0.000
 GapD=    0.162 DampG=1.000 DampE=0.500 DampFc=0.5000 IDamp=-1.
 Damping current iteration by 5.00D-01
 RMSDP=2.68D+02 MaxDP=5.45D+04              OVMax= 9.95D-01

 Problem detected with inexpensive integrals.
 Switching to full accuracy and repeating last cycle.
 Cycle   2  Pass 1  IDiag  1:
 E= -2150.02819215560     Delta-E=       -0.000613830617 Rises=F Damp=F
 DIIS: error= 2.12D-02 at cycle   1 NSaved=   1.
 NSaved= 1 IEnMin= 1 EnMin= -2150.02819215560     IErMin= 1 ErrMin= 2.12D-02
 ErrMax= 2.12D-02  0.00D+00 EMaxC= 1.00D-01 BMatC= 2.83D+00 BMatP= 2.83D+00
 IDIUse=3 WtCom= 7.88D-01 WtEn= 2.12D-01
 Coeff-Com:  0.100D+01
 Coeff-En:   0.100D+01
 Coeff:      0.100D+01
 Gap=     0.162 Goal=   None    Shift=    0.000
 Gap=     0.162 Goal=   None    Shift=    0.000
 GapD=    0.162 DampG=1.000 DampE=0.500 DampFc=0.5000 IDamp=-1.
 Damping current iteration by 5.00D-01
 RMSDP=9.47D-04 MaxDP=4.40D-02 DE=-6.14D-04 OVMax= 1.18D-01

 Cycle   3  Pass 1  IDiag  1:
 RMSU=  4.59D-04    CP:  9.71D-01
 E= -2150.41763128415     Delta-E=       -0.389439128555 Rises=F Damp=T
 DIIS: error= 6.12D-03 at cycle   2 NSaved=   2.
 NSaved= 2 IEnMin= 2 EnMin= -2150.41763128415     IErMin= 2 ErrMin= 6.12D-03
 ErrMax= 6.12D-03  0.00D+00 EMaxC= 1.00D-01 BMatC= 1.94D-01 BMatP= 2.83D+00
 IDIUse=3 WtCom= 9.39D-01 WtEn= 6.12D-02
 Coeff-Com: -0.166D+00 0.117D+01
 Coeff-En:   0.000D+00 0.100D+01
 Coeff:     -0.156D+00 0.116D+01
 Gap=     0.169 Goal=   None    Shift=    0.000
 Gap=     0.169 Goal=   None    Shift=    0.000
 GapD=    0.169 DampG=1.000 DampE=1.000 DampFc=1.0000 IDamp=-1.
 RMSDP=3.36D-04 MaxDP=3.10D-02 DE=-3.89D-01 OVMax= 5.98D-02

 Cycle   4  Pass 1  IDiag  1:
 RMSU=  3.06D-04    CP:  9.42D-01  1.15D+00
 E= -2150.74749593039     Delta-E=       -0.329864646241 Rises=F Damp=F
 DIIS: error= 5.50D-03 at cycle   3 NSaved=   3.
 NSaved= 3 IEnMin= 3 EnMin= -2150.74749593039     IErMin= 3 ErrMin= 5.50D-03
 ErrMax= 5.50D-03  0.00D+00 EMaxC= 1.00D-01 BMatC= 7.81D-02 BMatP= 1.94D-01
 IDIUse=3 WtCom= 9.45D-01 WtEn= 5.50D-02
 Coeff-Com: -0.104D+00 0.499D+00 0.606D+00
 Coeff-En:   0.000D+00 0.000D+00 0.100D+01
 Coeff:     -0.987D-01 0.471D+00 0.628D+00
 Gap=     0.166 Goal=   None    Shift=    0.000
 Gap=     0.166 Goal=   None    Shift=    0.000
 RMSDP=1.06D-04 MaxDP=1.27D-02 DE=-3.30D-01 OVMax= 3.91D-02

 Cycle   5  Pass 1  IDiag  1:
 RMSU=  9.57D-05    CP:  9.46D-01  1.14D+00  8.67D-01
 E= -2150.75916761909     Delta-E=       -0.011671688699 Rises=F Damp=F
 DIIS: error= 3.84D-03 at cycle   4 NSaved=   4.
 NSaved= 4 IEnMin= 4 EnMin= -2150.75916761909     IErMin= 4 ErrMin= 3.84D-03
 ErrMax= 3.84D-03  0.00D+00 EMaxC= 1.00D-01 BMatC= 3.02D-02 BMatP= 7.81D-02
 IDIUse=3 WtCom= 9.62D-01 WtEn= 3.84D-02
 Coeff-Com: -0.357D-01 0.136D+00 0.396D+00 0.503D+00
 Coeff-En:   0.000D+00 0.000D+00 0.311D+00 0.689D+00
 Coeff:     -0.343D-01 0.131D+00 0.393D+00 0.511D+00
 Gap=     0.166 Goal=   None    Shift=    0.000
 Gap=     0.166 Goal=   None    Shift=    0.000
 RMSDP=4.22D-05 MaxDP=4.21D-03 DE=-1.17D-02 OVMax= 1.60D-02

 Cycle   6  Pass 1  IDiag  1:
 RMSU=  3.75D-05    CP:  9.47D-01  1.14D+00  8.74D-01  8.04D-01
 E= -2150.76686735807     Delta-E=       -0.007699738977 Rises=F Damp=F
 DIIS: error= 6.24D-04 at cycle   5 NSaved=   5.
 NSaved= 5 IEnMin= 5 EnMin= -2150.76686735807     IErMin= 5 ErrMin= 6.24D-04
 ErrMax= 6.24D-04  0.00D+00 EMaxC= 1.00D-01 BMatC= 8.17D-04 BMatP= 3.02D-02
 IDIUse=3 WtCom= 9.94D-01 WtEn= 6.24D-03
 Coeff-Com: -0.982D-02 0.345D-01 0.141D+00 0.231D+00 0.604D+00
 Coeff-En:   0.000D+00 0.000D+00 0.000D+00 0.000D+00 0.100D+01
 Coeff:     -0.975D-02 0.343D-01 0.140D+00 0.229D+00 0.606D+00
 Gap=     0.166 Goal=   None    Shift=    0.000
 Gap=     0.166 Goal=   None    Shift=    0.000
 RMSDP=1.25D-05 MaxDP=1.02D-03 DE=-7.70D-03 OVMax= 3.89D-03

 Cycle   7  Pass 1  IDiag  1:
 RMSU=  1.03D-05    CP:  9.48D-01  1.14D+00  8.86D-01  8.57D-01  1.02D+00
 E= -2150.76707029769     Delta-E=       -0.000202939618 Rises=F Damp=F
 DIIS: error= 1.93D-04 at cycle   6 NSaved=   6.
 NSaved= 6 IEnMin= 6 EnMin= -2150.76707029769     IErMin= 6 ErrMin= 1.93D-04
 ErrMax= 1.93D-04  0.00D+00 EMaxC= 1.00D-01 BMatC= 1.09D-04 BMatP= 8.17D-04
 IDIUse=3 WtCom= 9.98D-01 WtEn= 1.93D-03
 Coeff-Com: -0.757D-03 0.207D-02 0.262D-01 0.589D-01 0.308D+00 0.606D+00
 Coeff-En:   0.000D+00 0.000D+00 0.000D+00 0.000D+00 0.000D+00 0.100D+01
 Coeff:     -0.756D-03 0.206D-02 0.262D-01 0.588D-01 0.307D+00 0.607D+00
 Gap=     0.166 Goal=   None    Shift=    0.000
 Gap=     0.166 Goal=   None    Shift=    0.000
 RMSDP=4.52D-06 MaxDP=4.14D-04 DE=-2.03D-04 OVMax= 1.57D-03

 Cycle   8  Pass 1  IDiag  1:
 RMSU=  3.14D-06    CP:  9.48D-01  1.13D+00  8.90D-01  8.75D-01  1.08D+00
                    CP:  1.07D+00
 E= -2150.76710323617     Delta-E=       -0.000032938481 Rises=F Damp=F
 DIIS: error= 6.07D-05 at cycle   7 NSaved=   7.
 NSaved= 7 IEnMin= 7 EnMin= -2150.76710323617     IErMin= 7 ErrMin= 6.07D-05
 ErrMax= 6.07D-05  0.00D+00 EMaxC= 1.00D-01 BMatC= 4.96D-06 BMatP= 1.09D-04
 IDIUse=1 WtCom= 1.00D+00 WtEn= 0.00D+00
 Coeff-Com:  0.115D-02-0.418D-02-0.126D-01-0.172D-01-0.520D-02 0.128D+00
 Coeff-Com:  0.910D+00
 Coeff:      0.115D-02-0.418D-02-0.126D-01-0.172D-01-0.520D-02 0.128D+00
 Coeff:      0.910D+00
 Gap=     0.167 Goal=   None    Shift=    0.000
 Gap=     0.167 Goal=   None    Shift=    0.000
 RMSDP=2.93D-06 MaxDP=2.89D-04 DE=-3.29D-05 OVMax= 7.77D-04

 Cycle   9  Pass 1  IDiag  1:
 RMSU=  1.13D-06    CP:  9.48D-01  1.13D+00  8.90D-01  8.90D-01  1.13D+00
                    CP:  1.19D+00  1.19D+00
 E= -2150.76710680260     Delta-E=       -0.000003566430 Rises=F Damp=F
 DIIS: error= 2.36D-05 at cycle   8 NSaved=   8.
 NSaved= 8 IEnMin= 8 EnMin= -2150.76710680260     IErMin= 8 ErrMin= 2.36D-05
 ErrMax= 2.36D-05  0.00D+00 EMaxC= 1.00D-01 BMatC= 2.02D-06 BMatP= 4.96D-06
 IDIUse=1 WtCom= 1.00D+00 WtEn= 0.00D+00
 Coeff-Com:  0.687D-03-0.245D-02-0.102D-01-0.174D-01-0.452D-01-0.183D-01
 Coeff-Com:  0.471D+00 0.622D+00
 Coeff:      0.687D-03-0.245D-02-0.102D-01-0.174D-01-0.452D-01-0.183D-01
 Coeff:      0.471D+00 0.622D+00
 Gap=     0.167 Goal=   None    Shift=    0.000
 Gap=     0.167 Goal=   None    Shift=    0.000
 RMSDP=7.47D-07 MaxDP=6.47D-05 DE=-3.57D-06 OVMax= 3.31D-04

 Cycle  10  Pass 1  IDiag  1:
 RMSU=  3.86D-07    CP:  9.48D-01  1.13D+00  8.91D-01  8.92D-01  1.14D+00
                    CP:  1.22D+00  1.27D+00  1.09D+00
 E= -2150.76710759530     Delta-E=       -0.000000792700 Rises=F Damp=F
 DIIS: error= 1.02D-05 at cycle   9 NSaved=   9.
 NSaved= 9 IEnMin= 9 EnMin= -2150.76710759530     IErMin= 9 ErrMin= 1.02D-05
 ErrMax= 1.02D-05  0.00D+00 EMaxC= 1.00D-01 BMatC= 1.45D-07 BMatP= 2.02D-06
 IDIUse=1 WtCom= 1.00D+00 WtEn= 0.00D+00
 Coeff-Com:  0.259D-04-0.138D-03-0.126D-02-0.275D-02-0.123D-01-0.225D-01
 Coeff-Com:  0.103D-01 0.194D+00 0.834D+00
 Coeff:      0.259D-04-0.138D-03-0.126D-02-0.275D-02-0.123D-01-0.225D-01
 Coeff:      0.103D-01 0.194D+00 0.834D+00
 Gap=     0.167 Goal=   None    Shift=    0.000
 Gap=     0.167 Goal=   None    Shift=    0.000
 RMSDP=2.18D-07 MaxDP=1.01D-05 DE=-7.93D-07 OVMax= 1.29D-04

 Cycle  11  Pass 1  IDiag  1:
 RMSU=  1.83D-07    CP:  9.48D-01  1.13D+00  8.91D-01  8.92D-01  1.14D+00
                    CP:  1.22D+00  1.28D+00  1.16D+00  1.07D+00
 E= -2150.76710767958     Delta-E=       -0.000000084287 Rises=F Damp=F
 DIIS: error= 4.36D-06 at cycle  10 NSaved=  10.
 NSaved=10 IEnMin=10 EnMin= -2150.76710767958     IErMin=10 ErrMin= 4.36D-06
 ErrMax= 4.36D-06  0.00D+00 EMaxC= 1.00D-01 BMatC= 4.40D-08 BMatP= 1.45D-07
 IDIUse=1 WtCom= 1.00D+00 WtEn= 0.00D+00
 Coeff-Com: -0.100D-03 0.325D-03 0.957D-03 0.138D-02 0.832D-03-0.817D-02
 Coeff-Com: -0.695D-01 0.334D-02 0.431D+00 0.640D+00
 Coeff:     -0.100D-03 0.325D-03 0.957D-03 0.138D-02 0.832D-03-0.817D-02
 Coeff:     -0.695D-01 0.334D-02 0.431D+00 0.640D+00
 Gap=     0.167 Goal=   None    Shift=    0.000
 Gap=     0.167 Goal=   None    Shift=    0.000
 RMSDP=1.05D-07 MaxDP=9.77D-06 DE=-8.43D-08 OVMax= 5.06D-05

 Cycle  12  Pass 1  IDiag  1:
 RMSU=  6.37D-08    CP:  9.48D-01  1.13D+00  8.91D-01  8.92D-01  1.14D+00
                    CP:  1.22D+00  1.29D+00  1.18D+00  1.17D+00  1.13D+00
 E= -2150.76710769640     Delta-E=       -0.000000016820 Rises=F Damp=F
 DIIS: error= 1.56D-06 at cycle  11 NSaved=  11.
 NSaved=11 IEnMin=11 EnMin= -2150.76710769640     IErMin=11 ErrMin= 1.56D-06
 ErrMax= 1.56D-06  0.00D+00 EMaxC= 1.00D-01 BMatC= 3.75D-09 BMatP= 4.40D-08
 IDIUse=1 WtCom= 1.00D+00 WtEn= 0.00D+00
 Coeff-Com: -0.429D-04 0.145D-03 0.525D-03 0.898D-03 0.176D-02-0.120D-03
 Coeff-Com: -0.284D-01-0.235D-01 0.548D-01 0.246D+00 0.747D+00
 Coeff:     -0.429D-04 0.145D-03 0.525D-03 0.898D-03 0.176D-02-0.120D-03
 Coeff:     -0.284D-01-0.235D-01 0.548D-01 0.246D+00 0.747D+00
 Gap=     0.167 Goal=   None    Shift=    0.000
 Gap=     0.167 Goal=   None    Shift=    0.000
 RMSDP=5.22D-08 MaxDP=4.36D-06 DE=-1.68D-08 OVMax= 1.99D-05

 Cycle  13  Pass 1  IDiag  1:
 RMSU=  2.99D-08    CP:  9.48D-01  1.13D+00  8.91D-01  8.91D-01  1.14D+00
                    CP:  1.22D+00  1.28D+00  1.19D+00  1.19D+00  1.21D+00
                    CP:  1.19D+00
 E= -2150.76710769967     Delta-E=       -0.000000003267 Rises=F Damp=F
 DIIS: error= 8.52D-07 at cycle  12 NSaved=  12.
 NSaved=12 IEnMin=12 EnMin= -2150.76710769967     IErMin=12 ErrMin= 8.52D-07
 ErrMax= 8.52D-07  0.00D+00 EMaxC= 1.00D-01 BMatC= 6.64D-10 BMatP= 3.75D-09
 IDIUse=1 WtCom= 1.00D+00 WtEn= 0.00D+00
 Coeff-Com: -0.214D-05 0.935D-05 0.708D-04 0.161D-03 0.542D-03 0.110D-02
 Coeff-Com: -0.147D-02-0.947D-02-0.417D-01 0.161D-03 0.284D+00 0.767D+00
 Coeff:     -0.214D-05 0.935D-05 0.708D-04 0.161D-03 0.542D-03 0.110D-02
 Coeff:     -0.147D-02-0.947D-02-0.417D-01 0.161D-03 0.284D+00 0.767D+00
 Gap=     0.167 Goal=   None    Shift=    0.000
 Gap=     0.167 Goal=   None    Shift=    0.000
 RMSDP=2.24D-08 MaxDP=1.29D-06 DE=-3.27D-09 OVMax= 1.12D-05

 Cycle  14  Pass 1  IDiag  1:
 RMSU=  1.14D-08    CP:  9.48D-01  1.13D+00  8.91D-01  8.91D-01  1.14D+00
                    CP:  1.21D+00  1.28D+00  1.19D+00  1.19D+00  1.24D+00
                    CP:  1.34D+00  1.25D+00
 E= -2150.76710769964     Delta-E=        0.000000000026 Rises=F Damp=F
 DIIS: error= 3.96D-07 at cycle  13 NSaved=  13.
 NSaved=13 IEnMin=12 EnMin= -2150.76710769967     IErMin=13 ErrMin= 3.96D-07
 ErrMax= 3.96D-07  0.00D+00 EMaxC= 1.00D-01 BMatC= 1.59D-10 BMatP= 6.64D-10
 IDIUse=1 WtCom= 1.00D+00 WtEn= 0.00D+00
 Coeff-Com:  0.117D-04-0.381D-04-0.125D-03-0.199D-03-0.285D-03 0.585D-03
 Coeff-Com:  0.808D-02 0.307D-02-0.344D-01-0.716D-01-0.969D-01 0.305D+00
 Coeff-Com:  0.887D+00
 Coeff:      0.117D-04-0.381D-04-0.125D-03-0.199D-03-0.285D-03 0.585D-03
 Coeff:      0.808D-02 0.307D-02-0.344D-01-0.716D-01-0.969D-01 0.305D+00
 Coeff:      0.887D+00
 Gap=     0.167 Goal=   None    Shift=    0.000
 Gap=     0.167 Goal=   None    Shift=    0.000
 RMSDP=1.23D-08 MaxDP=7.58D-07 DE= 2.64D-11 OVMax= 8.70D-06

 Cycle  15  Pass 1  IDiag  1:
 RMSU=  6.26D-09    CP:  9.48D-01  1.13D+00  8.91D-01  8.91D-01  1.14D+00
                    CP:  1.21D+00  1.28D+00  1.19D+00  1.19D+00  1.26D+00
                    CP:  1.41D+00  1.43D+00  1.33D+00
 E= -2150.76710769980     Delta-E=       -0.000000000156 Rises=F Damp=F
 DIIS: error= 1.45D-07 at cycle  14 NSaved=  14.
 NSaved=14 IEnMin=14 EnMin= -2150.76710769980     IErMin=14 ErrMin= 1.45D-07
 ErrMax= 1.45D-07  0.00D+00 EMaxC= 1.00D-01 BMatC= 2.14D-11 BMatP= 1.59D-10
 IDIUse=1 WtCom= 1.00D+00 WtEn= 0.00D+00
 Coeff-Com:  0.379D-05-0.127D-04-0.464D-04-0.829D-04-0.165D-03 0.283D-04
 Coeff-Com:  0.256D-02 0.227D-02-0.421D-02-0.201D-01-0.681D-01-0.319D-01
 Coeff-Com:  0.264D+00 0.856D+00
 Coeff:      0.379D-05-0.127D-04-0.464D-04-0.829D-04-0.165D-03 0.283D-04
 Coeff:      0.256D-02 0.227D-02-0.421D-02-0.201D-01-0.681D-01-0.319D-01
 Coeff:      0.264D+00 0.856D+00
 Gap=     0.167 Goal=   None    Shift=    0.000
 Gap=     0.167 Goal=   None    Shift=    0.000
 RMSDP=4.45D-09 MaxDP=3.07D-07 DE=-1.56D-10 OVMax= 2.94D-06

 SCF Done:  E(ULC-wHPBE) =  -2150.76710770     A.U. after   15 cycles
            NFock= 15  Conv=0.45D-08     -V/T= 2.0052
 <Sx>= 0.0000 <Sy>= 0.0000 <Sz>= 0.0000 <S**2>=-0.0000 S=-0.0000
 <L.S>= 0.000000000000E+00
 KE= 2.139696471755D+03 PE=-1.660539762367D+04 EE= 6.508162921443D+03
 Annihilation of the first spin contaminant:
 S**2 before annihilation    -0.0000,   after    -0.0000
 Leave Link  502 at Mon Feb  3 19:24:17 2020, MaxMem=  6710886400 cpu:           59213.6 elap:            3804.4
 (Enter /opt/ohpc/pub/libs/gaussian/g16-A.03/sandybridge/g16/l801.exe)
 DoSCS=F DFT=T ScalE2(SS,OS)=  1.000000  1.000000
 ExpMin= 9.52D-02 ExpMax= 1.36D+04 ExpMxC= 4.63D+02 IAcc=3 IRadAn=         5 AccDes= 0.00D+00
 HarFok:  IExCor=  205 AccDes= 0.00D+00 IRadAn=         5 IDoV=-2 UseB2=F ITyADJ=14
 ICtDFT= 12500011 ScaDFX=  1.000000  1.000000  1.000000  1.000000
 GSVD:  LWork=       -3584 too small for GESVD, short by       16520 words or       16520 for optimal perf.
 Largest valence mixing into a core orbital is  5.35D-05
 Largest core mixing into a valence orbital is  1.82D-05
 Largest valence mixing into a core orbital is  5.35D-05
 Largest core mixing into a valence orbital is  1.82D-05
 Range of M.O.s used for correlation:    57  1915
 NBasis=  1916 NAE=   183 NBE=   183 NFC=    56 NFV=     0
 NROrb=   1859 NOA=   127 NOB=   127 NVA=  1732 NVB=  1732

 **** Warning!!: The largest alpha MO coefficient is  0.11178416D+03


 **** Warning!!: The largest beta MO coefficient is  0.11178416D+03

 Leave Link  801 at Mon Feb  3 19:24:29 2020, MaxMem=  6710886400 cpu:              47.5 elap:               3.2
 (Enter /opt/ohpc/pub/libs/gaussian/g16-A.03/sandybridge/g16/l914.exe)
 UHF ground state
 Two-electron integrals replicated using symmetry.
 MDV=  6710886400 DFT=T DoStab=F Mixed=T DoRPA=T DoScal=F NonHer=T
 Making orbital integer symmetry assigments:
 Orbital symmetries:
 Alpha Orbitals:
       Occupied  (AG) (B1U) (B2U) (AG) (B3G) (B1U) (B3G) (B2U)
                 (B1U) (AG) (B2U) (AG) (B3G) (B1U) (B2U) (AG) (B3G)
                 (B1U) (B2U) (AG) (B2U) (AG) (B3G) (B1U) (B3G)
                 (B1U) (B3G) (B1U) (B2U) (AG) (B3G) (B1U) (B2U)
                 (AG) (B3G) (B1U) (B2U) (AG) (B1U) (B3G) (B2U)
                 (AG) (B2U) (AG) (B3G) (B1U) (B2U) (AG) (B3G) (B1U)
                 (B1U) (AG) (B3G) (B2U) (B1U) (AG) (AG) (B2U) (AG)
                 (B2U) (AG) (B2U) (B1U) (AG) (B2U) (AG) (B2U) (B3G)
                 (AG) (B1U) (B3G) (B1U) (AG) (B3G) (B1U) (B2U)
                 (B3G) (AG) (B1U) (B2U) (B1U) (B3G) (B1U) (B2U)
                 (B3G) (AG) (B2U) (AG) (B1U) (B3G) (AG) (B2U) (AG)
                 (B3G) (B2U) (AG) (B2U) (AG) (B1U) (B2U) (B3G)
                 (B1U) (AG) (B2U) (AG) (B1U) (B2U) (AG) (B2U) (B3G)
                 (AG) (B1U) (B2U) (AG) (B1U) (B2U) (B3G) (B3G)
                 (B1U) (AG) (B3G) (B1U) (B2U) (AG) (B3U) (B3G)
                 (B3G) (AG) (B1G) (B1U) (B2U) (B3U) (B3G) (AG)
                 (B1U) (B1G) (B3G) (B1U) (B2U) (B1U) (B3U) (AG)
                 (B2U) (B3G) (B1G) (AG) (B2G) (B1U) (B2U) (B3U)
                 (B3G) (B2U) (B1U) (AG) (B1G) (B2U) (B3G) (AG)
                 (B3U) (B1U) (B2U) (AU) (AG) (B2G) (B2U) (B3G)
                 (AU) (AG) (B1G) (B3U) (B2G) (AU) (B3U) (B2G) (AU)
                 (B1G) (B2G) (B3U) (AU) (B1G) (B2G) (AU) (B2G)
       Virtual   (B1G) (B3U) (B1G) (AU) (B3U) (B2G) (B3U) (B1G)
                 (AU) (B3U) (B2G) (B1G) (B3U) (B1G) (B3U) (B2G)
                 (AU) (B1G) (B1U) (B3G) (AG) (B1U) (B2U) (AG) (B3G)
                 (B2U) (AG) (B2U) (B1U) (B2G) (AG) (B3G) (B2U)
                 (B1U) (AG) (AU) (B3G) (B1U) (AG) (B2U) (AG) (B2U)
                 (AG) (B3G) (B2G) (B2U) (B1U) (AG) (B2U) (B1U)
                 (B3U) (AG) (AU) (B2G) (B2U) (AU) (B3G) (B2G) (AG)
                 (B1U) (AU) (B2U) (B3G) (B1U) (B2U) (B3G) (B1U)
                 (AG) (B3G) (AG) (B3G) (B1U) (B3U) (B1U) (AG) (B1G)
                 (B3U) (B3G) (B2U) (AG) (B1G) (B2U) (B1U) (B2U)
                 (B3U) (B1U) (AG) (B3G) (B2G) (B2G) (B1G) (AG)
                 (B2U) (B1U) (B3G) (B3G) (AG) (B1U) (B3U) (B2U)
                 (AG) (AU) (B1U) (B3G) (B1G) (B2U) (AG) (AU) (B3U)
                 (B2G) (B1U) (B3G) (B2U) (B1U) (B1U) (B3G) (B3U)
                 (B2U) (B2G) (B1U) (AG) (AU) (B3G) (B2G) (B1G)
                 (B2U) (B3G) (B2U) (AG) (B2U) (AU) (AG) (AG) (B2U)
                 (B1G) (B2G) (B3U) (B1U) (B3U) (AG) (B1G) (B1U)
                 (B2U) (AG) (B3G) (B2U) (B3U) (AG) (B1G) (B2U)
                 (B2G) (AG) (AU) (B2U) (AG) (B2U) (B3U) (B1G) (B3G)
                 (B2U) (AG) (B1U) (B2G) (B3G) (AG) (B1U) (B1U)
                 (AG) (B2U) (B3G) (B3U) (B1G) (B3G) (B1U) (AG)
                 (AU) (B3G) (AG) (B1U) (B3G) (B2U) (B3U) (B1G)
                 (B1U) (AG) (B2G) (B2U) (B1U) (B3G) (B2U) (B1U)
                 (B3G) (B3U) (AU) (B3G) (AG) (B2U) (AG) (B2U) (B1U)
                 (B3G) (B1U) (AG) (B1U) (B2U) (AG) (AU) (B3G) (B2G)
                 (B1G) (AG) (B2U) (B2G) (B1U) (B3G) (AU) (B3U)
                 (AG) (B1U) (B1G) (B2U) (B3U) (B3G) (B1U) (B2G)
                 (AU) (AG) (B3G) (B2U) (B1U) (B3U) (B2G) (B1G)
                 (B3G) (B2U) (B1U) (AG) (B3G) (B1U) (B3U) (B1U)
                 (AU) (AG) (B3G) (B2U) (B3G) (B1U) (B2U) (B1U)
                 (B1G) (B2G) (B3G) (AG) (B1U) (B3G) (B1U) (AU)
                 (B2U) (AG) (B3G) (B2G) (B3U) (B2U) (AG) (B1G)
                 (AG) (B3G) (B2U) (B1U) (B2U) (AG) (B1U) (B1G)
                 (AG) (B3G) (B3G) (B2U) (B1U) (AG) (B2U) (B3U)
                 (AU) (B3U) (B1U) (B3G) (B1U) (B3G) (AG) (B2G)
                 (B2U) (B1U) (B3G) (B1G) (AG) (B3G) (B2U) (B1G)
                 (B1U) (B3G) (B3U) (B2U) (B1U) (B2G) (AG) (B3G)
[...]
  Beta virt. eigenvalues --    4.27370   4.27463   4.28123   4.28874   4.29140
  Beta virt. eigenvalues --    4.29340   4.30106   4.30310   4.30604   4.30724
  Beta virt. eigenvalues --    4.31252   4.31693   4.31936   4.31945   4.31969
  Beta virt. eigenvalues --    4.32747   4.33301   4.34268   4.34381   4.34576
  Beta virt. eigenvalues --    4.35244   4.35601   4.35947   4.36241   4.36535
  Beta virt. eigenvalues --    4.38165   4.38833   4.39771   4.40017   4.40028
  Beta virt. eigenvalues --    4.40348   4.40593   4.40656   4.41293   4.41302
  Beta virt. eigenvalues --    4.41335   4.41904   4.41922   4.41947   4.43914
  Beta virt. eigenvalues --    4.44227   4.44401   4.45014   4.45283   4.46005
  Beta virt. eigenvalues --    4.46669   4.46685   4.47882   4.48479   4.49460
  Beta virt. eigenvalues --    4.49866   4.51311   4.52626   4.53013   4.55108
  Beta virt. eigenvalues --    4.55629   4.55643   4.56029   4.56458   4.56499
  Beta virt. eigenvalues --    4.58338   4.59588   4.59812   4.60617   4.60622
  Beta virt. eigenvalues --    4.61347   4.61636   4.62018   4.62087   4.62711
  Beta virt. eigenvalues --    4.62826   4.63568   4.63820   4.63988   4.64709
  Beta virt. eigenvalues --    4.65540   4.66327   4.66333   4.66516   4.66692
  Beta virt. eigenvalues --    4.68348   4.68637   4.70362   4.71162   4.72082
  Beta virt. eigenvalues --    4.72648   4.72797   4.74007   4.74281   4.74335
  Beta virt. eigenvalues --    4.75401   4.75884   4.76043   4.76401   4.77629
  Beta virt. eigenvalues --    4.78346   4.79031   4.79313   4.79872   4.79968
  Beta virt. eigenvalues --    4.80223   4.81297   4.82737   4.86418   4.86529
  Beta virt. eigenvalues --    4.86558   4.86810   4.86957   4.87019   4.87619
  Beta virt. eigenvalues --    4.87936   4.89976   4.90039   4.90546   4.92039
  Beta virt. eigenvalues --    4.92865   4.93099   4.93764   4.94463   4.95610
  Beta virt. eigenvalues --    4.95850   4.96439   4.96817   4.98383   4.99894
  Beta virt. eigenvalues --    5.00407   5.01611   5.02886   5.03320   5.05129
  Beta virt. eigenvalues --    5.05855   5.06317   5.07409   5.08199   5.09225
  Beta virt. eigenvalues --    5.09673   5.10462   5.11996   5.12159   5.12255
  Beta virt. eigenvalues --    5.14494   5.14544   5.14953   5.15679   5.15764
  Beta virt. eigenvalues --    5.16276   5.17182   5.20178   5.20469   5.21328
  Beta virt. eigenvalues --    5.22094   5.22239   5.24131   5.25033   5.25148
  Beta virt. eigenvalues --    5.25283   5.26110   5.27002   5.28726   5.29845
  Beta virt. eigenvalues --    5.33581   5.33815   5.35466   5.36798   5.40318
  Beta virt. eigenvalues --    5.42925   5.43398   5.43587   5.43751   5.43800
  Beta virt. eigenvalues --    5.44455   5.45091   5.46390   5.47824   5.48315
  Beta virt. eigenvalues --    5.49499   5.51626   5.52896   5.52976   5.54943
  Beta virt. eigenvalues --    5.55623   5.57787   5.58884   5.60829   5.61111
  Beta virt. eigenvalues --    5.63431   5.64769   5.65695   5.66358   5.68454
  Beta virt. eigenvalues --    5.69274   5.71315   5.71397   5.73180   5.74223
  Beta virt. eigenvalues --    5.75236   5.76893   5.77761   5.79582   5.80088
  Beta virt. eigenvalues --    5.83524   5.84362   5.90848   5.91597   5.98000
  Beta virt. eigenvalues --    6.02608   6.07243   6.12936   6.21292   6.26875
  Beta virt. eigenvalues --    6.52034  21.60912  21.94483  22.13018  22.38362
  Beta virt. eigenvalues --   22.40827  22.40830  22.41113  22.42484  22.44438
  Beta virt. eigenvalues --   22.47685  22.49314  22.49470  22.54210  22.56460
  Beta virt. eigenvalues --   22.58303  22.58658  22.59968  22.61720  22.62792
  Beta virt. eigenvalues --   22.66083  22.66836  22.66882  22.67309  22.68538
  Beta virt. eigenvalues --   22.69025  22.69139  22.69166  22.69268  22.71501
  Beta virt. eigenvalues --   22.71555  22.72766  22.76628  22.77324  22.78771
  Beta virt. eigenvalues --   22.80577  22.84681  22.90124  22.91594  22.93225
  Beta virt. eigenvalues --   22.95177  22.95834  22.99640  23.02927  23.03135
  Beta virt. eigenvalues --   23.06948  23.15148  23.19909  23.22118  23.26944
  Beta virt. eigenvalues --   23.28689  23.42533  23.50717  23.61253  23.67003
  Beta virt. eigenvalues --   23.75495  24.14218
          Condensed to atoms (all electrons):
          Atomic-Atomic Spin Densities.
 Mulliken charges and spin densities:
               1          2
     1  C   -0.138229   0.000000
     2  C   -0.184028  -0.000000
     3  C    0.111029   0.000000
     4  C   -0.017572  -0.000000
     5  C    0.111029   0.000000
     6  C   -0.184028  -0.000000
     7  C    0.176132   0.000000
     8  C   -0.017572  -0.000000
     9  C    0.111029   0.000000
    10  C    0.176132   0.000000
    11  C   -0.184028  -0.000000
    12  H    0.081383  -0.000000
    13  C   -0.138229   0.000000
    14  C   -0.184028  -0.000000
    15  C    0.111029   0.000000
    16  C    0.176132   0.000000
    17  C    0.176132   0.000000
    18  H    0.103050   0.000000
    19  H    0.081383  -0.000000
    20  H    0.081383  -0.000000
    21  H    0.103050   0.000000
    22  H    0.081383  -0.000000
    23  C   -0.360337  -0.000000
    24  C    0.287802  -0.000000
    25  C    0.287802  -0.000000
    26  C   -0.360337  -0.000000
    27  H    0.077354  -0.000000
    28  H    0.077354  -0.000000
    29  C   -0.396259   0.000000
    30  C    0.303632  -0.000000
    31  C    0.303632  -0.000000
    32  C   -0.396259   0.000000
    33  H    0.088228   0.000000
    34  H    0.088228   0.000000
    35  C    0.287802  -0.000000
    36  C   -0.360337  -0.000000
    37  C   -0.360337  -0.000000
    38  C    0.287802  -0.000000
    39  H    0.077354  -0.000000
    40  H    0.077354  -0.000000
    41  C    0.303632  -0.000000
    42  C   -0.396259   0.000000
    43  C   -0.396259   0.000000
    44  C    0.303632  -0.000000
    45  H    0.088228   0.000000
    46  H    0.088228   0.000000
    47  C   -0.390734   0.000000
    48  C   -0.390734   0.000000
    49  H    0.089508   0.000000
    50  H    0.089508   0.000000
    51  C   -0.390734   0.000000
    52  C   -0.390734   0.000000
    53  C    0.284139  -0.000000
    54  C    0.284139  -0.000000
    55  H    0.089508   0.000000
    56  H    0.089508   0.000000
    57  C    0.284139  -0.000000
    58  C   -0.351282  -0.000000
    59  C   -0.351282  -0.000000
    60  C    0.284139  -0.000000
    61  H    0.089902  -0.000000
    62  H    0.089902  -0.000000
    63  C   -0.351282  -0.000000
    64  C   -0.351282  -0.000000
    65  C    0.232719   0.000000
    66  C    0.232719   0.000000
    67  H    0.089902  -0.000000
    68  H    0.089902  -0.000000
    69  C    0.232719   0.000000
    70  C   -0.232555  -0.000000
    71  C   -0.086823   0.000000
    72  C   -0.086823   0.000000
    73  C   -0.232555  -0.000000
    74  C    0.232719   0.000000
    75  H    0.099015  -0.000000
    76  H    0.107551   0.000000
    77  H    0.107551   0.000000
    78  H    0.099015  -0.000000
    79  C   -0.232555  -0.000000
    80  C   -0.232555  -0.000000
    81  C   -0.086823   0.000000
    82  H    0.099015  -0.000000
    83  C   -0.086823   0.000000
    84  H    0.099015  -0.000000
    85  H    0.107551   0.000000
    86  H    0.107551   0.000000
 Sum of Mulliken charges =  -0.00000   0.00000
 Mulliken charges and spin densities with hydrogens summed into heavy atoms:
               1          2
     1  C   -0.035179   0.000000
     2  C   -0.102645  -0.000000
     3  C    0.111029   0.000000
     4  C   -0.017572  -0.000000
     5  C    0.111029   0.000000
     6  C   -0.102645  -0.000000
     7  C    0.176132   0.000000
     8  C   -0.017572  -0.000000
     9  C    0.111029   0.000000
    10  C    0.176132   0.000000
    11  C   -0.102645  -0.000000
    13  C   -0.035179   0.000000
    14  C   -0.102645  -0.000000
    15  C    0.111029   0.000000
    16  C    0.176132   0.000000
    17  C    0.176132   0.000000
    23  C   -0.282983  -0.000000
    24  C    0.287802  -0.000000
    25  C    0.287802  -0.000000
    26  C   -0.282983  -0.000000
    29  C   -0.308030   0.000000
    30  C    0.303632  -0.000000
    31  C    0.303632  -0.000000
    32  C   -0.308030   0.000000
    35  C    0.287802  -0.000000
    36  C   -0.282983  -0.000000
    37  C   -0.282983  -0.000000
    38  C    0.287802  -0.000000
    41  C    0.303632  -0.000000
    42  C   -0.308030   0.000000
    43  C   -0.308030   0.000000
    44  C    0.303632  -0.000000
    47  C   -0.301226   0.000000
    48  C   -0.301226   0.000000
    51  C   -0.301226   0.000000
    52  C   -0.301226   0.000000
    53  C    0.284139  -0.000000
    54  C    0.284139  -0.000000
    57  C    0.284139  -0.000000
    58  C   -0.261380  -0.000000
    59  C   -0.261380  -0.000000
    60  C    0.284139  -0.000000
    63  C   -0.261380  -0.000000
    64  C   -0.261380  -0.000000
    65  C    0.232719   0.000000
    66  C    0.232719   0.000000
    69  C    0.232719   0.000000
    70  C   -0.133540  -0.000000
    71  C    0.020727   0.000000
    72  C    0.020727   0.000000
    73  C   -0.133540  -0.000000
    74  C    0.232719   0.000000
    79  C   -0.133540  -0.000000
    80  C   -0.133540  -0.000000
    81  C    0.020727   0.000000
    83  C    0.020727   0.000000
 Electronic spatial extent (au):  <R**2>=          98674.8324
 Charge=              0.0000 electrons
 Dipole moment (field-independent basis, Debye):
    X=              0.0000    Y=             -0.0000    Z=             -0.0000  Tot=              0.0000
 Quadrupole moment (field-independent basis, Debye-Ang):
   XX=           -337.9246   YY=           -269.2943   ZZ=           -275.9685
   XY=              0.0000   XZ=              0.0000   YZ=              0.0000
 Traceless Quadrupole moment (field-independent basis, Debye-Ang):
   XX=            -43.5288   YY=             25.1015   ZZ=             18.4273
   XY=              0.0000   XZ=              0.0000   YZ=              0.0000
 Octapole moment (field-independent basis, Debye-Ang**2):
  XXX=              0.0000  YYY=              0.0000  ZZZ=             -0.0000  XYY=              0.0000
  XXY=             -0.0000  XXZ=              0.0000  XZZ=              0.0000  YZZ=              0.0000
  YYZ=             -0.0000  XYZ=             -0.0000
 Hexadecapole moment (field-independent basis, Debye-Ang**3):
 XXXX=           -387.0078 YYYY=        -118523.3420 ZZZZ=          -4459.8306 XXXY=             -0.0000
 XXXZ=              0.0000 YYYX=             -0.0000 YYYZ=              0.0000 ZZZX=              0.0000
 ZZZY=             -0.0000 XXYY=         -24762.0932 XXZZ=           -988.7337 YYZZ=         -20946.2638
 XXYZ=             -0.0000 YYXZ=              0.0000 ZZXY=             -0.0000
 N-N= 5.806771122776D+03 E-N=-1.660539761550D+04  KE= 2.139696471755D+03
 Symmetry AG   KE= 5.621246665729D+02
 Symmetry B1G  KE= 1.463491446132D+01
 Symmetry B2G  KE= 1.606682769745D+01
 Symmetry B3G  KE= 4.789598370346D+02
 Symmetry AU   KE= 1.401215336135D+01
 Symmetry B1U  KE= 5.445994365244D+02
 Symmetry B2U  KE= 4.929221715640D+02
 Symmetry B3U  KE= 1.637646453920D+01
 Symmetry AG   SP= 1.003523407858D-13
 Symmetry B1G  SP=-1.185618639186D-14
 Symmetry B2G  SP= 2.036943921062D-14
 Symmetry B3G  SP= 8.721816158625D-14
 Symmetry AU   SP= 8.607997512367D-15
 Symmetry B1U  SP= 8.841840147910D-16
 Symmetry B2U  SP=-3.503177506734D-14
 Symmetry B3U  SP=-8.817437085588D-15
 Leave Link  601 at Tue Feb  4 00:41:30 2020, MaxMem=  6710886400 cpu:             711.2 elap:              44.9
 (Enter /opt/ohpc/pub/libs/gaussian/g16-A.03/sandybridge/g16/l9999.exe)
 Electronic transition elements 
                 1             2             3             4             5 
      1  -0.215075D+04 -0.215075D+04 -0.215071D+04 -0.215070D+04 -0.215070D+04
      2   0.000000D+00  0.000000D+00  0.000000D+00  0.000000D+00  0.000000D+00
      3   0.000000D+00  0.000000D+00  0.000000D+00  0.000000D+00  0.000000D+00
      4   0.000000D+00  0.000000D+00  0.000000D+00  0.000000D+00  0.000000D+00
      5   0.000000D+00  0.000000D+00  0.000000D+00  0.000000D+00  0.000000D+00
      6   0.000000D+00  0.000000D+00  0.000000D+00  0.000000D+00  0.000000D+00
      7   0.000000D+00  0.000000D+00  0.000000D+00  0.000000D+00  0.000000D+00
      8   0.000000D+00  0.000000D+00  0.000000D+00  0.000000D+00  0.151736D+01
      9   0.000000D+00  0.000000D+00  0.000000D+00  0.000000D+00  0.000000D+00
     10   0.000000D+00  0.000000D+00  0.000000D+00  0.000000D+00  0.000000D+00
     11   0.000000D+00  0.000000D+00  0.000000D+00  0.000000D+00  0.000000D+00
     12   0.000000D+00  0.000000D+00  0.000000D+00  0.000000D+00  0.000000D+00
     13   0.000000D+00  0.000000D+00  0.000000D+00  0.000000D+00  0.000000D+00
     14   0.000000D+00  0.000000D+00  0.000000D+00  0.000000D+00  0.000000D+00
     15   0.000000D+00  0.000000D+00  0.000000D+00  0.000000D+00  0.000000D+00
     16   0.000000D+00  0.000000D+00  0.000000D+00  0.000000D+00  0.163700D+01
                 6             7             8             9            10 
      1  -0.215070D+04 -0.215067D+04 -0.215067D+04 -0.215067D+04 -0.215066D+04
      2   0.000000D+00  0.000000D+00  0.000000D+00  0.000000D+00  0.000000D+00
      3   0.000000D+00  0.000000D+00  0.000000D+00  0.000000D+00  0.000000D+00
      4  -0.123077D+01  0.000000D+00  0.000000D+00  0.000000D+00  0.000000D+00
      5   0.000000D+00  0.000000D+00  0.000000D+00  0.000000D+00  0.000000D+00
      6   0.000000D+00  0.000000D+00  0.000000D+00  0.000000D+00  0.000000D+00
      7   0.939636D-01  0.000000D+00  0.000000D+00  0.000000D+00  0.000000D+00
      8   0.000000D+00  0.000000D+00  0.000000D+00  0.000000D+00  0.000000D+00
      9   0.000000D+00  0.000000D+00  0.000000D+00  0.000000D+00  0.000000D+00
     10   0.000000D+00  0.000000D+00  0.000000D+00  0.000000D+00  0.000000D+00
     11   0.000000D+00  0.000000D+00  0.000000D+00  0.000000D+00  0.000000D+00
     12   0.000000D+00  0.000000D+00  0.000000D+00  0.000000D+00  0.000000D+00
     13   0.000000D+00  0.000000D+00  0.000000D+00  0.000000D+00  0.000000D+00
     14   0.000000D+00  0.000000D+00  0.000000D+00  0.000000D+00  0.000000D+00
     15   0.000000D+00  0.000000D+00  0.000000D+00  0.000000D+00  0.000000D+00
     16   0.000000D+00  0.000000D+00  0.000000D+00  0.000000D+00  0.000000D+00
                11            12            13            14            15 
      1  -0.215066D+04 -0.215066D+04 -0.215066D+04 -0.215066D+04 -0.215066D+04
      2   0.000000D+00  0.000000D+00  0.000000D+00  0.000000D+00  0.000000D+00
      3   0.000000D+00  0.000000D+00  0.000000D+00  0.000000D+00  0.000000D+00
      4   0.000000D+00  0.000000D+00  0.000000D+00 -0.266635D+00  0.000000D+00
      5   0.000000D+00  0.000000D+00  0.000000D+00  0.000000D+00  0.000000D+00
      6   0.000000D+00  0.000000D+00  0.000000D+00  0.000000D+00  0.000000D+00
      7   0.000000D+00  0.000000D+00  0.000000D+00  0.317530D-01  0.000000D+00
      8   0.000000D+00  0.000000D+00  0.233767D+01  0.000000D+00  0.000000D+00
      9   0.000000D+00  0.000000D+00  0.000000D+00  0.000000D+00  0.000000D+00
     10   0.000000D+00  0.000000D+00  0.000000D+00  0.000000D+00  0.000000D+00
     11   0.000000D+00  0.000000D+00  0.000000D+00  0.000000D+00  0.000000D+00
     12   0.000000D+00  0.000000D+00  0.000000D+00  0.000000D+00  0.000000D+00
     13   0.000000D+00  0.000000D+00  0.000000D+00  0.000000D+00  0.000000D+00
     14   0.000000D+00  0.000000D+00  0.000000D+00  0.000000D+00  0.000000D+00
     15   0.000000D+00  0.000000D+00  0.000000D+00  0.000000D+00  0.000000D+00
     16   0.000000D+00  0.000000D+00  0.113954D+01  0.000000D+00  0.000000D+00
                16            17            18            19            20 
      1  -0.215065D+04 -0.215065D+04 -0.215065D+04 -0.215065D+04 -0.215065D+04
      2   0.000000D+00  0.000000D+00  0.000000D+00  0.000000D+00  0.000000D+00
      3   0.124615D+01  0.000000D+00  0.000000D+00  0.000000D+00  0.000000D+00
      4   0.000000D+00  0.000000D+00  0.000000D+00  0.000000D+00  0.000000D+00
      5   0.000000D+00  0.000000D+00  0.000000D+00  0.000000D+00  0.000000D+00
      6  -0.137740D+00  0.000000D+00  0.000000D+00  0.000000D+00  0.000000D+00
      7   0.000000D+00  0.000000D+00  0.000000D+00  0.000000D+00  0.000000D+00
      8   0.000000D+00  0.000000D+00  0.000000D+00  0.000000D+00 -0.903537D+00
      9   0.000000D+00  0.000000D+00  0.000000D+00  0.000000D+00  0.000000D+00
     10   0.000000D+00  0.000000D+00  0.000000D+00  0.000000D+00  0.000000D+00
     11   0.000000D+00  0.771317D-03  0.000000D+00  0.000000D+00  0.000000D+00
     12   0.000000D+00 -0.227067D+01  0.000000D+00  0.000000D+00  0.000000D+00
     13   0.000000D+00  0.151603D+00  0.000000D+00  0.000000D+00  0.000000D+00
     14   0.000000D+00  0.000000D+00  0.000000D+00  0.000000D+00  0.000000D+00
     15   0.000000D+00  0.000000D+00  0.000000D+00  0.000000D+00  0.000000D+00
     16   0.000000D+00  0.000000D+00  0.000000D+00  0.000000D+00 -0.453411D+00

 Test job not archived.
 1\1\GINC-CNODE168\SP\ULC-wHPBE TD-FC\def2TZVP\C56H30\QAI222\04-Feb-202
 0\0\\#P uLC-wHPBE/def2tzvp iop(3/107=0175000000, 3/108=0175000000) td(
 nstates=20)\\H30 C56\\0,1\C,0,0.,0.,3.538705\C,0,0.,1.198545,2.844495\
 C,0,0.,1.227049,1.445262\C,0,0.,0.,0.731208\C,0,0.,-1.227049,1.445262\
 C,0,0.,-1.198545,2.844495\C,0,0.,2.512936,0.723526\C,0,0.,0.,-0.731208
 \C,0,0.,1.227049,-1.445262\C,0,0.,2.512936,-0.723526\C,0,0.,1.198545,-
 2.844495\H,0,0.,2.12526,-3.412973\C,0,0.,0.,-3.538705\C,0,0.,-1.198545
 ,-2.844495\C,0,0.,-1.227049,-1.445262\C,0,0.,-2.512936,-0.723526\C,0,0
 .,-2.512936,0.723526\H,0,0.,0.,4.62893\H,0,0.,2.12526,3.412973\H,0,0.,
 -2.12526,3.412973\H,0,0.,0.,-4.62893\H,0,0.,-2.12526,-3.412973\C,0,0.,
 3.717018,1.389442\C,0,0.,4.973457,0.721324\C,0,0.,4.973457,-0.721324\C
 ,0,0.,3.717018,-1.389442\H,0,0.,3.749336,2.47745\H,0,0.,3.749336,-2.47
 745\C,0,0.,6.182878,1.406482\C,0,0.,7.419524,0.725811\C,0,0.,7.419524,
 -0.725811\C,0,0.,6.182878,-1.406482\H,0,0.,6.181523,2.498725\H,0,0.,6.
 181523,-2.498725\C,0,0.,-4.973457,0.721324\C,0,0.,-3.717018,1.389442\C
 ,0,0.,-3.717018,-1.389442\C,0,0.,-4.973457,-0.721324\H,0,0.,-3.749336,
 2.47745\H,0,0.,-3.749336,-2.47745\C,0,0.,-7.419524,0.725811\C,0,0.,-6.
 182878,1.406482\C,0,0.,-6.182878,-1.406482\C,0,0.,-7.419524,-0.725811\
 H,0,0.,-6.181523,2.498725\H,0,0.,-6.181523,-2.498725\C,0,0.,8.646145,1
 .405736\C,0,0.,8.646145,-1.405736\H,0,0.,8.646441,2.497902\H,0,0.,8.64
 6441,-2.497902\C,0,0.,-8.646145,1.405736\C,0,0.,-8.646145,-1.405736\C,
 0,0.,-9.868891,-0.725245\C,0,0.,-9.868891,0.725245\H,0,0.,-8.646441,2.
 497902\H,0,0.,-8.646441,-2.497902\C,0,0.,9.868891,0.725245\C,0,0.,11.1
 10078,1.405248\C,0,0.,11.110078,-1.405248\C,0,0.,9.868891,-0.725245\H,
 0,0.,11.110883,2.497527\H,0,0.,11.110883,-2.497527\C,0,0.,-11.110078,1
 .405248\C,0,0.,-11.110078,-1.405248\C,0,0.,-12.317185,-0.724704\C,0,0.
 ,-12.317185,0.724704\H,0,0.,-11.110883,2.497527\H,0,0.,-11.110883,-2.4
 97527\C,0,0.,12.317185,0.724704\C,0,0.,13.580311,1.408153\C,0,0.,14.75
 3473,0.715698\C,0,0.,14.753473,-0.715698\C,0,0.,13.580311,-1.408153\C,
 0,0.,12.317185,-0.724704\H,0,0.,13.578161,2.499525\H,0,0.,15.704466,1.
 249241\H,0,0.,15.704466,-1.249241\H,0,0.,13.578161,-2.499525\C,0,0.,-1
 3.580311,-1.408153\C,0,0.,-13.580311,1.408153\C,0,0.,-14.753473,-0.715
 698\H,0,0.,-13.578161,-2.499525\C,0,0.,-14.753473,0.715698\H,0,0.,-13.
 578161,2.499525\H,0,0.,-15.704466,-1.249241\H,0,0.,-15.704466,1.249241
 \\Version=EM64L-G16RevA.03\State=1-AG\HF=-2150.7671077\S2=0.\S2-1=0.\S
 2A=0.\RMSD=4.451e-09\PG=D02H [C2"(H1C1C1.C1C1H1),SG(C52H28)]\\@


 IN THE WOODS WE RETURN TO REASON AND FAITH.

                                 -- EMERSON
 Job cpu time:       4 days  4 hours 39 minutes  7.5 seconds.
 Elapsed time:       0 days  6 hours 20 minutes 50.4 seconds.
 File lengths (MBytes):  RWF=  37248 Int=      0 D2E=      0 Chk=   3120 Scr=     32
 Normal termination of Gaussian 16 at Tue Feb  4 00:41:34 2020.
