 Entering Gaussian System, Link 0=g16
 Input=p3.gjf
 Output=p3.log
 Initial command:
 /opt/ohpc/pub/libs/gaussian/g16-A.03/sandybridge/g16/l1.exe "/scratch/qai222/pamol/pamol_fmt/s1/p3/Gau-55650.inp" -scrdir="/scratch/qai222/pamol/pamol_fmt/s1/p3/"
 Entering Link 1 = /opt/ohpc/pub/libs/gaussian/g16-A.03/sandybridge/g16/l1.exe PID=     55651.
  
 Copyright (c) 1988,1990,1992,1993,1995,1998,2003,2009,2016,
            Gaussian, Inc.  All Rights Reserved.
  
 This is part of the Gaussian(R) 16 program.  It is based on
 the Gaussian(R) 09 system (copyright 2009, Gaussian, Inc.),
 the Gaussian(R) 03 system (copyright 2003, Gaussian, Inc.),
 the Gaussian(R) 98 system (copyright 1998, Gaussian, Inc.),
 the Gaussian(R) 94 system (copyright 1995, Gaussian, Inc.),
 the Gaussian 92(TM) system (copyright 1992, Gaussian, Inc.),
 the Gaussian 90(TM) system (copyright 1990, Gaussian, Inc.),
 the Gaussian 88(TM) system (copyright 1988, Gaussian, Inc.),
 the Gaussian 86(TM) system (copyright 1986, Carnegie Mellon
 University), and the Gaussian 82(TM) system (copyright 1983,
 Carnegie Mellon University). Gaussian is a federally registered
 trademark of Gaussian, Inc.
  
 This software contains proprietary and confidential information,
 including trade secrets, belonging to Gaussian, Inc.
  
 This software is provided under written license and may be
 used, copied, transmitted, or stored only in accord with that
 written license.
  
 The following legend is applicable only to US Government
 contracts under FAR:
  
                    RESTRICTED RIGHTS LEGEND
  
 Use, reproduction and disclosure by the US Government is
 subject to restrictions as set forth in subparagraphs (a)
 and (c) of the Commercial Computer Software - Restricted
 Rights clause in FAR 52.227-19.
  
 Gaussian, Inc.
 340 Quinnipiac St., Bldg. 40, Wallingford CT 06492
  
  
 ---------------------------------------------------------------
 Warning -- This program may not be used in any manner that
 competes with the business of Gaussian, Inc. or will provide
 assistance to any competitor of Gaussian, Inc.  The licensee
 of this program is prohibited from giving any competitor of
 Gaussian, Inc. access to this program.  By using this program,
 the user acknowledges that Gaussian, Inc. is engaged in the
 business of creating and licensing software in the field of
 computational chemistry and represents and warrants to the
 licensee that it is not a competitor of Gaussian, Inc. and that
 it will not use this program in any manner prohibited above.
 ---------------------------------------------------------------
  

 Cite this work as:
 Gaussian 16, Revision A.03,
 M. J. Frisch, G. W. Trucks, H. B. Schlegel, G. E. Scuseria, 
 M. A. Robb, J. R. Cheeseman, G. Scalmani, V. Barone, 
 G. A. Petersson, H. Nakatsuji, X. Li, M. Caricato, A. V. Marenich, 
 J. Bloino, B. G. Janesko, R. Gomperts, B. Mennucci, H. P. Hratchian, 
 J. V. Ortiz, A. F. Izmaylov, J. L. Sonnenberg, D. Williams-Young, 
 F. Ding, F. Lipparini, F. Egidi, J. Goings, B. Peng, A. Petrone, 
 T. Henderson, D. Ranasinghe, V. G. Zakrzewski, J. Gao, N. Rega, 
 G. Zheng, W. Liang, M. Hada, M. Ehara, K. Toyota, R. Fukuda, 
 J. Hasegawa, M. Ishida, T. Nakajima, Y. Honda, O. Kitao, H. Nakai, 
 T. Vreven, K. Throssell, J. A. Montgomery, Jr., J. E. Peralta, 
 F. Ogliaro, M. J. Bearpark, J. J. Heyd, E. N. Brothers, K. N. Kudin, 
 V. N. Staroverov, T. A. Keith, R. Kobayashi, J. Normand, 
 K. Raghavachari, A. P. Rendell, J. C. Burant, S. S. Iyengar, 
 J. Tomasi, M. Cossi, J. M. Millam, M. Klene, C. Adamo, R. Cammi, 
 J. W. Ochterski, R. L. Martin, K. Morokuma, O. Farkas, 
 J. B. Foresman, and D. J. Fox, Gaussian, Inc., Wallingford CT, 2016.
 
 ******************************************
 Gaussian 16:  EM64L-G16RevA.03 25-Dec-2016
                20-Jan-2020 
 ******************************************
 %mem=50GB
 %nproc=16
 Will use up to   16 processors via shared memory.
 ----------------------------------------------------------------------
 #P uLC-wHPBE/def2tzvp iop(3/107=0179000000, 3/108=0179000000) td(NStat
 es=20)
 ----------------------------------------------------------------------
 1/38=1,172=1/1;
 2/12=2,17=6,18=5,40=1/2;
 3/5=44,7=101,11=2,25=1,30=1,74=-71,107=179000000,108=179000000,116=2/1,2,3,8;
 4//1;
 5/5=2,38=5/2;
 8/6=1,10=1,108=20/1;
 9/41=20,42=1,70=2/14;
 6/7=2,8=2,9=2,10=2/1;
 99/5=1,9=1/99;
 Leave Link    1 at Mon Jan 20 22:57:39 2020, MaxMem=  6710886400 cpu:               9.6 elap:               0.6
 (Enter /opt/ohpc/pub/libs/gaussian/g16-A.03/sandybridge/g16/l101.exe)
 -------
 H16 C28
 -------
 Symbolic Z-matrix:
 Charge =  0 Multiplicity = 1
 C                     0.        3.52683  -2.98731 
 C                     0.        2.84551  -1.76936 
 C                     0.        1.45125  -1.70858 
 C                     0.        0.72082  -2.92706 
 C                     0.        1.41858  -4.16719 
 C                     0.        2.82324  -4.17656 
 C                     0.        0.72218  -0.42651 
 C                     0.       -0.72082  -2.92706 
 C                     0.       -1.45125  -1.70858 
 C                     0.       -0.72218  -0.42651 
 C                     0.       -2.84551  -1.76936 
 H                     0.       -3.43344  -0.85384 
 C                     0.       -3.52683  -2.98731 
 C                     0.       -2.82324  -4.17656 
 C                     0.       -1.41858  -4.16719 
 C                     0.       -0.67735  -5.39659 
 C                     0.        0.67735  -5.39659 
 H                     0.        1.23462  -6.33479 
 H                     0.       -1.23462  -6.33479 
 H                     0.        4.61711  -2.99392 
 H                     0.        3.43344  -0.85384 
 H                     0.        3.34695  -5.13373 
 H                     0.       -4.61711  -2.99392 
 H                     0.       -3.34695  -5.13373 
 C                     0.        1.38788   0.78201 
 C                     0.        0.71711   2.0303 
 C                     0.       -0.71711   2.0303 
 C                     0.       -1.38788   0.78201 
 H                     0.        2.47653   0.81023 
 H                     0.       -2.47653   0.81023 
 C                     0.        1.40224   3.25355 
 C                     0.        0.72058   4.47168 
 C                     0.       -0.72058   4.47168 
 C                     0.       -1.40224   3.25355 
 H                     0.        2.49459   3.25313 
 H                     0.       -2.49459   3.25313 
 C                     0.        1.40498   5.72813 
 C                     0.        0.7127    6.90549 
 C                     0.       -0.7127    6.90549 
 C                     0.       -1.40498   5.72813 
 H                     0.        2.49631   5.7257 
 H                     0.        1.24835   7.85522 
 H                     0.       -1.24835   7.85522 
 H                     0.       -2.49631   5.7257 
 
 ITRead=  0  0  0  0  0  0  0  0  0  0  0  0  0  0  0  0  0  0  0  0
 ITRead=  0  0  0  0  0  0  0  0  0  0  0  0  0  0  0  0  0  0  0  0
 ITRead=  0  0  0  0
 MicOpt= -1 -1 -1 -1 -1 -1 -1 -1 -1 -1 -1 -1 -1 -1 -1 -1 -1 -1 -1 -1
 MicOpt= -1 -1 -1 -1 -1 -1 -1 -1 -1 -1 -1 -1 -1 -1 -1 -1 -1 -1 -1 -1
 MicOpt= -1 -1 -1 -1
 NAtoms=     44 NQM=       44 NQMF=       0 NMMI=      0 NMMIF=      0
                NMic=       0 NMicF=      0.
                    Isotopes and Nuclear Properties:
 (Nuclear quadrupole moments (NQMom) in fm**2, nuclear magnetic moments (NMagM)
  in nuclear magnetons)

  Atom         1           2           3           4           5           6           7           8           9          10
 IAtWgt=          12          12          12          12          12          12          12          12          12          12
 AtmWgt=  12.0000000  12.0000000  12.0000000  12.0000000  12.0000000  12.0000000  12.0000000  12.0000000  12.0000000  12.0000000
 NucSpn=           0           0           0           0           0           0           0           0           0           0
 AtZEff=  -0.0000000  -0.0000000  -0.0000000  -0.0000000  -0.0000000  -0.0000000  -0.0000000  -0.0000000  -0.0000000  -0.0000000
 NQMom=    0.0000000   0.0000000   0.0000000   0.0000000   0.0000000   0.0000000   0.0000000   0.0000000   0.0000000   0.0000000
 NMagM=    0.0000000   0.0000000   0.0000000   0.0000000   0.0000000   0.0000000   0.0000000   0.0000000   0.0000000   0.0000000
 AtZNuc=   6.0000000   6.0000000   6.0000000   6.0000000   6.0000000   6.0000000   6.0000000   6.0000000   6.0000000   6.0000000

  Atom        11          12          13          14          15          16          17          18          19          20
 IAtWgt=          12           1          12          12          12          12          12           1           1           1
 AtmWgt=  12.0000000   1.0078250  12.0000000  12.0000000  12.0000000  12.0000000  12.0000000   1.0078250   1.0078250   1.0078250
 NucSpn=           0           1           0           0           0           0           0           1           1           1
 AtZEff=  -0.0000000  -0.0000000  -0.0000000  -0.0000000  -0.0000000  -0.0000000  -0.0000000  -0.0000000  -0.0000000  -0.0000000
 NQMom=    0.0000000   0.0000000   0.0000000   0.0000000   0.0000000   0.0000000   0.0000000   0.0000000   0.0000000   0.0000000
 NMagM=    0.0000000   2.7928460   0.0000000   0.0000000   0.0000000   0.0000000   0.0000000   2.7928460   2.7928460   2.7928460
 AtZNuc=   6.0000000   1.0000000   6.0000000   6.0000000   6.0000000   6.0000000   6.0000000   1.0000000   1.0000000   1.0000000

  Atom        21          22          23          24          25          26          27          28          29          30
 IAtWgt=           1           1           1           1          12          12          12          12           1           1
 AtmWgt=   1.0078250   1.0078250   1.0078250   1.0078250  12.0000000  12.0000000  12.0000000  12.0000000   1.0078250   1.0078250
 NucSpn=           1           1           1           1           0           0           0           0           1           1
 AtZEff=  -0.0000000  -0.0000000  -0.0000000  -0.0000000  -0.0000000  -0.0000000  -0.0000000  -0.0000000  -0.0000000  -0.0000000
 NQMom=    0.0000000   0.0000000   0.0000000   0.0000000   0.0000000   0.0000000   0.0000000   0.0000000   0.0000000   0.0000000
 NMagM=    2.7928460   2.7928460   2.7928460   2.7928460   0.0000000   0.0000000   0.0000000   0.0000000   2.7928460   2.7928460
 AtZNuc=   1.0000000   1.0000000   1.0000000   1.0000000   6.0000000   6.0000000   6.0000000   6.0000000   1.0000000   1.0000000

  Atom        31          32          33          34          35          36          37          38          39          40
 IAtWgt=          12          12          12          12           1           1          12          12          12          12
 AtmWgt=  12.0000000  12.0000000  12.0000000  12.0000000   1.0078250   1.0078250  12.0000000  12.0000000  12.0000000  12.0000000
 NucSpn=           0           0           0           0           1           1           0           0           0           0
 AtZEff=  -0.0000000  -0.0000000  -0.0000000  -0.0000000  -0.0000000  -0.0000000  -0.0000000  -0.0000000  -0.0000000  -0.0000000
 NQMom=    0.0000000   0.0000000   0.0000000   0.0000000   0.0000000   0.0000000   0.0000000   0.0000000   0.0000000   0.0000000
 NMagM=    0.0000000   0.0000000   0.0000000   0.0000000   2.7928460   2.7928460   0.0000000   0.0000000   0.0000000   0.0000000
 AtZNuc=   6.0000000   6.0000000   6.0000000   6.0000000   1.0000000   1.0000000   6.0000000   6.0000000   6.0000000   6.0000000

  Atom        41          42          43          44
 IAtWgt=           1           1           1           1
 AtmWgt=   1.0078250   1.0078250   1.0078250   1.0078250
 NucSpn=           1           1           1           1
 AtZEff=  -0.0000000  -0.0000000  -0.0000000  -0.0000000
 NQMom=    0.0000000   0.0000000   0.0000000   0.0000000
 NMagM=    2.7928460   2.7928460   2.7928460   2.7928460
 AtZNuc=   1.0000000   1.0000000   1.0000000   1.0000000
 Leave Link  101 at Mon Jan 20 22:57:39 2020, MaxMem=  6710886400 cpu:               2.3 elap:               0.2
 (Enter /opt/ohpc/pub/libs/gaussian/g16-A.03/sandybridge/g16/l202.exe)
                          Input orientation:                          
 ---------------------------------------------------------------------
 Center     Atomic      Atomic             Coordinates (Angstroms)
 Number     Number       Type             X           Y           Z
 ---------------------------------------------------------------------
      1          6           0        0.000000    3.526831   -2.987308
      2          6           0        0.000000    2.845514   -1.769364
      3          6           0        0.000000    1.451247   -1.708575
      4          6           0        0.000000    0.720817   -2.927062
      5          6           0        0.000000    1.418580   -4.167191
      6          6           0        0.000000    2.823243   -4.176555
      7          6           0        0.000000    0.722182   -0.426508
      8          6           0        0.000000   -0.720817   -2.927062
      9          6           0        0.000000   -1.451247   -1.708575
     10          6           0        0.000000   -0.722182   -0.426508
     11          6           0        0.000000   -2.845514   -1.769364
     12          1           0        0.000000   -3.433438   -0.853842
     13          6           0        0.000000   -3.526831   -2.987308
     14          6           0        0.000000   -2.823243   -4.176555
     15          6           0        0.000000   -1.418580   -4.167191
     16          6           0        0.000000   -0.677354   -5.396594
     17          6           0        0.000000    0.677354   -5.396594
     18          1           0        0.000000    1.234623   -6.334793
     19          1           0        0.000000   -1.234623   -6.334793
     20          1           0        0.000000    4.617107   -2.993917
     21          1           0        0.000000    3.433438   -0.853842
     22          1           0        0.000000    3.346947   -5.133725
     23          1           0        0.000000   -4.617107   -2.993917
     24          1           0        0.000000   -3.346947   -5.133725
     25          6           0        0.000000    1.387876    0.782013
     26          6           0        0.000000    0.717106    2.030299
     27          6           0        0.000000   -0.717106    2.030299
     28          6           0        0.000000   -1.387876    0.782013
     29          1           0        0.000000    2.476526    0.810228
     30          1           0        0.000000   -2.476526    0.810228
     31          6           0        0.000000    1.402238    3.253549
     32          6           0        0.000000    0.720581    4.471680
     33          6           0        0.000000   -0.720581    4.471680
     34          6           0        0.000000   -1.402238    3.253549
     35          1           0        0.000000    2.494585    3.253130
     36          1           0        0.000000   -2.494585    3.253130
     37          6           0        0.000000    1.404975    5.728127
     38          6           0        0.000000    0.712695    6.905489
     39          6           0        0.000000   -0.712695    6.905489
     40          6           0        0.000000   -1.404975    5.728127
     41          1           0        0.000000    2.496311    5.725697
     42          1           0        0.000000    1.248353    7.855216
     43          1           0        0.000000   -1.248353    7.855216
     44          1           0        0.000000   -2.496311    5.725697
 ---------------------------------------------------------------------
                    Distance matrix (angstroms):
                    1          2          3          4          5
     1  C    0.000000
     2  C    1.395557   0.000000
     3  C    2.437869   1.395592   0.000000
     4  C    2.806661   2.419628   1.420647   0.000000
     5  C    2.415957   2.790289   2.458833   1.422952   0.000000
     6  C    1.381790   2.407294   2.823703   2.445696   1.404694
     7  C    3.797862   2.512330   1.474867   2.500554   3.804955
     8  C    4.248075   3.749531   2.490496   1.441634   2.472840
     9  C    5.139691   4.297191   2.902494   2.490496   3.778981
    10  C    4.961029   3.812049   2.523388   2.887043   4.309939
    11  C    6.487694   5.691028   4.297191   3.749531   4.892042
    12  H    7.279905   6.345346   4.958903   4.642852   5.875403
    13  C    7.053662   6.487694   5.139691   4.248075   5.084212
    14  C    6.460476   6.158683   4.935807   3.757871   4.241833
    15  C    5.084212   4.892042   3.778981   2.472840   2.837160
    16  C    4.845599   5.056421   4.258219   2.837864   2.429891
    17  C    3.731512   4.225839   3.768341   2.469914   1.435565
    18  H    4.057077   4.841292   4.631287   3.446248   2.175394
    19  H    5.820404   6.122962   5.349373   3.928915   3.426074
    20  H    1.090296   2.153618   3.416837   3.896864   3.406926
    21  H    2.135509   1.088042   2.158622   3.414170   3.877878
    22  H    2.153942   3.401523   3.914758   3.430149   2.157032
    23  H    8.143941   7.562423   6.202985   5.338343   6.148666
    24  H    7.201106   7.047375   5.895279   4.627750   4.862554
    25  C    4.333925   2.938407   2.491394   3.768581   4.949299
    26  C    5.750733   4.355176   3.810268   4.957362   6.237062
    27  C    6.571711   5.208618   4.322145   5.161691   6.555153
    28  C    6.193717   4.942784   3.776725   4.266594   5.689536
    29  H    3.940104   2.605849   2.719479   4.129146   5.088610
    30  H    7.103631   5.914254   4.666023   4.918367   6.320328
    31  C    6.592586   5.226155   4.962366   6.218061   7.420758
    32  C    7.969413   6.592873   6.223297   7.398742   8.667023
    33  C    8.583531   7.188022   6.550755   7.537839   8.899781
    34  C    7.952611   6.578226   5.724076   6.535083   7.938791
    35  H    6.325235   5.034739   5.070214   6.429699   7.497930
    36  H    8.671823   7.330901   6.339409   6.966605   8.388923
    37  C    8.970010   7.634627   7.436846   8.682187   9.895327
    38  C   10.285271   8.933196   8.645667   9.832554  11.095157
    39  C   10.762946   9.376243   8.881708   9.936499  11.275929
    40  C   10.014066   8.618528   7.966338   8.912423  10.290276
    41  H    8.773735   7.503191   7.507367   8.833041   9.951419
    42  H   11.079341   9.756201   9.565943  10.795175  12.023612
    43  H   11.847477  10.459077   9.937502  10.960618  12.314658
    44  H   10.592200   9.203860   8.417340   9.231476  10.639342
                    6          7          8          9         10
     6  C    0.000000
     7  C    4.298524   0.000000
     8  C    3.757871   2.887043   0.000000
     9  C    4.935807   2.523388   1.420647   0.000000
    10  C    5.160706   1.444364   2.500554   1.474867   0.000000
    11  C    6.158683   3.812049   2.419628   1.395592   2.512330
    12  H    7.084242   4.177534   3.414170   2.158622   2.744726
    13  C    6.460476   4.961029   2.806661   2.437869   3.797862
    14  C    5.646486   5.160706   2.445696   2.823703   4.298524
    15  C    4.241833   4.309939   1.422952   2.458833   3.804955
    16  C    3.707111   5.163376   2.469914   3.768341   4.970288
    17  C    2.468468   4.970288   2.837864   4.258219   5.163376
    18  H    2.679870   5.930466   3.928915   5.349373   6.223899
    19  H    4.596114   6.223899   3.446248   4.631287   5.930466
    20  H    2.148623   4.664979   5.338343   6.202985   5.924491
    21  H    3.378278   2.744726   4.642852   4.958903   4.177534
    22  H    1.091073   5.389553   4.627750   5.895279   6.222194
    23  H    7.533753   5.924491   3.896864   3.416837   4.664979
    24  H    6.243991   6.222194   3.430149   3.914758   5.389553
    25  C    5.162139   1.379736   4.266594   3.776725   2.431639
    26  C    6.554453   2.456812   5.161691   4.322145   2.847359
    27  C    7.145566   2.847359   4.957362   3.810268   2.456812
    28  C    6.505453   2.431639   3.768581   2.491394   1.379736
    29  H    4.998822   2.146448   4.918367   4.666023   3.429468
    30  H    7.277057   3.429468   4.129146   2.719479   2.146448
    31  C    7.564767   3.742365   6.535083   5.724076   4.249233
    32  C    8.900177   4.898188   7.537839   6.550755   5.106252
    33  C    9.346157   5.106252   7.398742   6.223297   4.898188
    34  C    8.547581   4.249233   6.218061   4.962366   3.742365
    35  H    7.436951   4.084256   6.966605   6.339409   4.887466
    36  H    9.136712   4.887466   6.429699   5.070214   4.084256
    37  C   10.005709   6.192394   8.912423   7.966338   6.511861
    38  C   11.281228   7.332003   9.936499   8.881708   7.471081
    39  C   11.632479   7.471081   9.832554   8.645667   7.332003
    40  C   10.769427   6.511861   8.682187   7.436846   6.192394
    41  H    9.907648   6.402902   9.231476   8.417340   6.943221
    42  H   12.134405   8.298422  10.960618   9.937502   8.512929
    43  H   12.702024   8.512929  10.795175   9.565943   8.298422
    44  H   11.240652   6.943221   8.833041   7.507367   6.402902
                   11         12         13         14         15
    11  C    0.000000
    12  H    1.088042   0.000000
    13  C    1.395557   2.135509   0.000000
    14  C    2.407294   3.378278   1.381790   0.000000
    15  C    2.790289   3.877878   2.415957   1.404694   0.000000
    16  C    4.225839   5.313435   3.731512   2.468468   1.435565
    17  C    5.056421   6.126598   4.845599   3.707111   2.429891
    18  H    6.122962   7.199418   5.820404   4.596114   3.426074
    19  H    4.841292   5.905558   4.057077   2.679870   2.175394
    20  H    7.562423   8.330138   8.143941   7.533753   6.148666
    21  H    6.345346   6.866876   7.279905   7.084242   5.875403
    22  H    7.047375   8.018168   7.201106   6.243991   4.862554
    23  H    2.153618   2.445607   1.090296   2.148623   3.406926
    24  H    3.401523   4.280757   2.153942   1.091073   2.157032
    25  C    4.942784   5.091276   6.193717   6.505453   5.689536
    26  C    5.208618   5.054234   6.571711   7.145566   6.555153
    27  C    4.355176   3.961910   5.750733   6.554453   6.237062
    28  C    2.938407   2.619226   4.333925   5.162139   4.949299
    29  H    5.914254   6.139772   7.103631   7.277057   6.320328
    30  H    2.605849   1.919586   3.940104   4.998822   5.088610
    31  C    6.578226   6.344637   7.952611   8.547581   7.938791
    32  C    7.188022   6.754040   8.583531   9.346157   8.899781
    33  C    6.592873   5.976686   7.969413   8.900177   8.667023
    34  C    5.226155   4.582187   6.592586   7.564767   7.420758
    35  H    7.330901   7.211704   8.671823   9.136712   8.388923
    36  H    5.034739   4.212916   6.325235   7.436951   7.497930
    37  C    8.618528   8.169000  10.014066  10.769427  10.290276
    38  C    9.376243   8.797593  10.762946  11.632479  11.275929
    39  C    8.933196   8.222509  10.285271  11.281228  11.095157
    40  C    7.634627   6.887451   8.970010  10.005709   9.895327
    41  H    9.203860   8.857328  10.592200  11.240652  10.639342
    42  H   10.459077   9.887712  11.847477  12.702024  12.314658
    43  H    9.756201   8.978991  11.079341  12.134405  12.023612
    44  H    7.503191   6.645942   8.773735   9.907648   9.951419
                   16         17         18         19         20
    16  C    0.000000
    17  C    1.354708   0.000000
    18  H    2.129759   1.091222   0.000000
    19  H    1.091222   2.129759   2.469246   0.000000
    20  H    5.814136   4.614598   4.754224   6.738264   0.000000
    21  H    6.126598   5.313435   5.905558   7.199418   2.445607
    22  H    4.032877   2.682504   2.429913   4.736386   2.488390
    23  H    4.614598   5.814136   6.738264   4.754224   9.234214
    24  H    2.682504   4.032877   4.736386   2.429913   8.246510
    25  C    6.514627   6.219327   7.118456   7.584618   4.968459
    26  C    7.556670   7.426999   8.381085   8.589762   6.360248
    27  C    7.426999   7.556670   8.589762   8.381085   7.327795
    28  C    6.219327   6.514627   7.584618   7.118456   7.093481
    29  H    6.962155   6.462326   7.252148   8.051332   4.365044
    30  H    6.462326   6.962155   8.051332   7.252148   8.049295
    31  C    8.896610   8.680463   9.589807   9.944312   7.026109
    32  C    9.966798   9.868369  10.818692  10.981925   8.421286
    33  C    9.868369   9.966798  10.981925  10.818692   9.177475
    34  C    8.680463   8.896610   9.944312   9.589807   8.675445
    35  H    9.212976   8.838555   9.670355  10.287627   6.597780
    36  H    8.838555   9.212976  10.287627   9.670355   9.465821
    37  C   11.317929  11.148491  12.064123  12.348341   9.294721
    38  C   12.380367  12.302134  13.250565  13.382717  10.641554
    39  C   12.302134  12.380367  13.382717  13.250565  11.242999
    40  C   11.148491  11.317929  12.348341  12.064123  10.599034
    41  H   11.566223  11.270047  12.126305  12.624393   8.973820
    42  H   13.390998  13.264106  14.190016  14.405607  11.360114
    43  H   13.264106  13.390998  14.405607  14.190016  12.333179
    44  H   11.270047  11.566223  12.624393  12.126305  11.253106
                   21         22         23         24         25
    21  H    0.000000
    22  H    4.280757   0.000000
    23  H    8.330138   8.246510   0.000000
    24  H    8.018168   6.693894   2.488390   0.000000
    25  C    2.619226   6.231686   7.093481   7.577236   0.000000
    26  C    3.961910   7.631468   7.327795   8.236490   1.417092
    27  C    5.054234   8.236490   6.360248   7.631468   2.447277
    28  C    5.091276   7.577236   4.968459   6.231686   2.775752
    29  H    1.919586   6.007346   8.049295   8.321263   1.089016
    30  H    6.139772   8.321263   4.365044   6.007346   3.864505
    31  C    4.582187   8.609777   8.675445   9.638523   2.471578
    32  C    5.976686   9.957992   9.177475  10.431136   3.749523
    33  C    6.754040  10.431136   8.421286   9.957992   4.249616
    34  C    6.344637   9.638523   7.026109   8.609777   3.727362
    35  H    4.212916   8.430057   9.465821  10.220706   2.707623
    36  H    7.211704  10.220706   6.597780   8.430057   4.602165
    37  C    6.887451  11.034087  10.599034  11.855825   4.946144
    38  C    8.222509  12.324040  11.242999  12.705250   6.160587
    39  C    8.797593  12.705250  10.641554  12.324040   6.473744
    40  C    8.169000  11.855825   9.294721  11.034087   5.680146
    41  H    6.645942  10.892687  11.253106  12.331695   5.066423
    42  H    8.978991  13.157381  12.333179  13.777858   7.074579
    43  H    9.887712  13.777858  11.360114  13.157381   7.548503
    44  H    8.857328  12.331695   8.973820  10.892687   6.287044
                   26         27         28         29         30
    26  C    0.000000
    27  C    1.434212   0.000000
    28  C    2.447277   1.417092   0.000000
    29  H    2.141059   3.418751   3.864505   0.000000
    30  H    3.418751   2.141059   1.089016   4.953052   0.000000
    31  C    1.402051   2.447031   3.727362   2.669066   4.584171
    32  C    2.441383   2.833246   4.249616   4.060736   4.860836
    33  C    2.833246   2.441383   3.749523   4.860836   4.060736
    34  C    2.447031   1.402051   2.471578   4.584171   2.669066
    35  H    2.157486   3.436608   4.602165   2.442969   5.538927
    36  H    3.436608   2.157486   2.707623   5.538927   2.442969
    37  C    3.761263   4.263468   5.680146   5.033284   6.265124
    38  C    4.875192   5.080532   6.473744   6.345337   6.879196
    39  C    5.080532   4.875192   6.160587   6.879196   6.345337
    40  C    4.263468   3.761263   4.946144   6.265124   5.033284
    41  H    4.101407   4.897144   6.287044   4.915509   6.992206
    42  H    5.849092   6.147576   7.548503   7.151242   7.969102
    43  H    6.147576   5.849092   7.074579   7.969102   7.151242
    44  H    4.897144   4.101407   5.066423   6.992206   4.915509
                   31         32         33         34         35
    31  C    0.000000
    32  C    1.395887   0.000000
    33  C    2.447489   1.441162   0.000000
    34  C    2.804476   2.447489   1.395887   0.000000
    35  H    1.092347   2.152198   3.438336   3.896823   0.000000
    36  H    3.896823   3.438336   2.152198   1.092347   4.989170
    37  C    2.474580   1.430753   2.469139   3.742189   2.704230
    38  C    3.716468   2.433822   2.824483   4.220143   4.063848
    39  C    4.220143   2.824483   2.433822   3.716468   4.860697
    40  C    3.742189   2.469139   1.430753   2.474580   4.618677
    41  H    2.703426   2.173885   3.452673   4.616297   2.472568
    42  H    4.604239   3.424450   3.914718   5.310459   4.767839
    43  H    5.310459   3.914718   3.424450   4.604239   5.932013
    44  H    4.616297   3.452673   2.173885   2.703426   5.569796
                   36         37         38         39         40
    36  H    0.000000
    37  C    4.618677   0.000000
    38  C    4.860697   1.365809   0.000000
    39  C    4.063848   2.422954   1.425390   0.000000
    40  C    2.704230   2.809950   2.422954   1.365809   0.000000
    41  H    5.569796   1.091339   2.138503   3.419010   3.901287
    42  H    5.932013   2.132847   1.090372   2.178920   3.400685
    43  H    4.767839   3.400685   2.178920   1.090372   2.132847
    44  H    2.472568   3.901287   3.419010   2.138503   1.091339
                   41         42         43         44
    41  H    0.000000
    42  H    2.468248   0.000000
    43  H    4.307825   2.496706   0.000000
    44  H    4.992622   4.307825   2.468248   0.000000
 Stoichiometry    C28H16
 Framework group  C2V[SGV(C28H16)]
 Deg. of freedom    43
 Full point group                 C2V     NOp   4
 Largest Abelian subgroup         C2V     NOp   4
 Largest concise Abelian subgroup C2      NOp   2
                         Standard orientation:                         
 ---------------------------------------------------------------------
 Center     Atomic      Atomic             Coordinates (Angstroms)
 Number     Number       Type             X           Y           Z
 ---------------------------------------------------------------------
      1          6           0        0.000000    3.526831   -2.987308
      2          6           0        0.000000    2.845514   -1.769364
      3          6           0        0.000000    1.451247   -1.708575
      4          6           0        0.000000    0.720817   -2.927062
      5          6           0        0.000000    1.418580   -4.167191
      6          6           0        0.000000    2.823243   -4.176555
      7          6           0        0.000000    0.722182   -0.426508
      8          6           0       -0.000000   -0.720817   -2.927062
      9          6           0       -0.000000   -1.451247   -1.708575
     10          6           0       -0.000000   -0.722182   -0.426508
     11          6           0       -0.000000   -2.845514   -1.769364
     12          1           0        0.000000   -3.433438   -0.853842
     13          6           0       -0.000000   -3.526831   -2.987308
     14          6           0       -0.000000   -2.823243   -4.176555
     15          6           0       -0.000000   -1.418580   -4.167191
     16          6           0        0.000000   -0.677354   -5.396594
     17          6           0        0.000000    0.677354   -5.396594
     18          1           0        0.000000    1.234623   -6.334793
     19          1           0       -0.000000   -1.234623   -6.334793
     20          1           0        0.000000    4.617107   -2.993917
     21          1           0        0.000000    3.433438   -0.853842
     22          1           0        0.000000    3.346947   -5.133725
     23          1           0       -0.000000   -4.617107   -2.993917
     24          1           0       -0.000000   -3.346947   -5.133725
     25          6           0        0.000000    1.387876    0.782013
     26          6           0        0.000000    0.717106    2.030299
     27          6           0       -0.000000   -0.717106    2.030299
     28          6           0       -0.000000   -1.387876    0.782013
     29          1           0        0.000000    2.476526    0.810228
     30          1           0       -0.000000   -2.476526    0.810228
     31          6           0        0.000000    1.402238    3.253549
     32          6           0        0.000000    0.720581    4.471680
     33          6           0       -0.000000   -0.720581    4.471680
     34          6           0       -0.000000   -1.402238    3.253549
     35          1           0        0.000000    2.494585    3.253130
     36          1           0       -0.000000   -2.494585    3.253130
     37          6           0        0.000000    1.404975    5.728127
     38          6           0        0.000000    0.712695    6.905489
     39          6           0       -0.000000   -0.712695    6.905489
     40          6           0       -0.000000   -1.404975    5.728127
     41          1           0        0.000000    2.496311    5.725697
     42          1           0        0.000000    1.248353    7.855216
     43          1           0       -0.000000   -1.248353    7.855216
     44          1           0       -0.000000   -2.496311    5.725697
 ---------------------------------------------------------------------
 Rotational constants (GHZ):           0.4473297           0.0962657           0.0792180
 Leave Link  202 at Mon Jan 20 22:57:39 2020, MaxMem=  6710886400 cpu:               0.3 elap:               0.0
 (Enter /opt/ohpc/pub/libs/gaussian/g16-A.03/sandybridge/g16/l301.exe)
 Standard basis: def2TZVP (5D, 7F)
 Ernie: Thresh=  0.10000D-02 Tol=  0.10000D-05 Strict=F.
 There are   390 symmetry adapted cartesian basis functions of A1  symmetry.
 There are   162 symmetry adapted cartesian basis functions of A2  symmetry.
 There are   162 symmetry adapted cartesian basis functions of B1  symmetry.
 There are   390 symmetry adapted cartesian basis functions of B2  symmetry.
 There are   334 symmetry adapted basis functions of A1  symmetry.
 There are   148 symmetry adapted basis functions of A2  symmetry.
 There are   148 symmetry adapted basis functions of B1  symmetry.
 There are   334 symmetry adapted basis functions of B2  symmetry.
   964 basis functions,  1556 primitive gaussians,  1104 cartesian basis functions
    92 alpha electrons       92 beta electrons
       nuclear repulsion energy      2219.2351981844 Hartrees.
 IExCor=33909 DFT=T Ex+Corr=LC-wHPBE ExCW=0 ScaHFX=  1.000000
 ScaDFX=  1.000000  1.000000  1.000000  1.000000 ScalE2=  1.000000  1.000000
 IRadAn=      5 IRanWt=     -1 IRanGd=            0 ICorTp=0 IEmpDi=  4
 HFx  wShort=  0.000000 wLong=  0.179000 cFull=  0.000000 cShort=  0.000000 cLong=  1.000000
 DFx  wShort=  0.000000 wLong=  0.179000 cFull=  0.000000 cShort=  1.000000 cLong=  0.000000
 NAtoms=   44 NActive=   44 NUniq=   22 SFac= 4.00D+00 NAtFMM=   60 NAOKFM=F Big=F
 Integral buffers will be    131072 words long.
 Raffenetti 2 integral format.
 Two-electron integral symmetry is turned on.
 Leave Link  301 at Mon Jan 20 22:57:39 2020, MaxMem=  6710886400 cpu:               0.9 elap:               0.1
 (Enter /opt/ohpc/pub/libs/gaussian/g16-A.03/sandybridge/g16/l302.exe)
 NPDir=0 NMtPBC=     1 NCelOv=     1 NCel=       1 NClECP=     1 NCelD=      1
         NCelK=      1 NCelE2=     1 NClLst=     1 CellRange=     0.0.
 One-electron integrals computed using PRISM.
 One-electron integral symmetry used in STVInt
   4 Symmetry operations used in ECPInt.
 ECPInt:  NShTT=   69378 NPrTT=  216160 LenC2=   55544 LenP2D=  120164.
 LDataN:  DoStor=T MaxTD1= 6 Len=  172
 NBasis=   964 RedAO= T EigKep=  1.39D-06  NBF=   334   148   148   334
 NBsUse=   964 1.00D-06 EigRej= -1.00D+00 NBFU=   334   148   148   334
 Precomputing XC quadrature grid using
 IXCGrd= 4 IRadAn=           5 IRanWt=          -1 IRanGd=           0 AccXCQ= 0.00D+00.
 Generated NRdTot=       0 NPtTot=           0 NUsed=           0 NTot=          32
 NSgBfM=  1073  1073  1073  1073  1073 MxSgAt=    44 MxSgA2=    44.
 Leave Link  302 at Mon Jan 20 22:57:41 2020, MaxMem=  6710886400 cpu:              26.3 elap:               1.7
 (Enter /opt/ohpc/pub/libs/gaussian/g16-A.03/sandybridge/g16/l303.exe)
 DipDrv:  MaxL=1.
 Leave Link  303 at Mon Jan 20 22:57:41 2020, MaxMem=  6710886400 cpu:               3.1 elap:               0.3
 (Enter /opt/ohpc/pub/libs/gaussian/g16-A.03/sandybridge/g16/l308.exe)
 Leave Link  308 at Mon Jan 20 22:57:42 2020, MaxMem=  6710886400 cpu:               5.2 elap:               0.4
 (Enter /opt/ohpc/pub/libs/gaussian/g16-A.03/sandybridge/g16/l401.exe)
 ExpMin= 9.52D-02 ExpMax= 1.36D+04 ExpMxC= 4.63D+02 IAcc=3 IRadAn=         5 AccDes= 0.00D+00
 Harris functional with IExCor=33909 and IRadAn=       5 diagonalized for initial guess.
 HarFok:  IExCor=33909 AccDes= 0.00D+00 IRadAn=         5 IDoV= 1 UseB2=F ITyADJ=14
 ICtDFT=  3500011 ScaDFX=  1.000000  1.000000  1.000000  1.000000
 FoFCou: FMM=F IPFlag=           0 FMFlag=      100000 FMFlg1=           0
         NFxFlg=           0 DoJE=T BraDBF=F KetDBF=T FulRan=T
         wScrn=  0.000000 ICntrl=       500 IOpCl=  0 I1Cent=   200000004 NGrid=           0
         NMat0=    1 NMatS0=      1 NMatT0=    0 NMatD0=    1 NMtDS0=    0 NMtDT0=    0
 Petite list used in FoFCou.
 Harris En= -1058.45910794650    
 JPrj=0 DoOrth=F DoCkMO=F.
 Initial guess orbital symmetries:
 Alpha Orbitals:
       Occupied  (B2) (A1) (A1) (A1) (B2) (B2) (A1) (B2) (B2) (A1)
                 (B2) (A1) (B2) (A1) (B2) (A1) (A1) (B2) (B2) (A1)
                 (A1) (B2) (A1) (B2) (A1) (B2) (A1) (B2) (A1) (A1)
                 (B2) (A1) (A1) (A1) (B2) (A1) (B2) (B2) (A1) (B2)
                 (A1) (B2) (A1) (A1) (B2) (B2) (A1) (A1) (B2) (A1)
                 (A1) (B2) (A1) (B2) (A1) (A1) (A1) (B2) (B2) (A1)
                 (B2) (A1) (B2) (A1) (A1) (B2) (A1) (B2) (B2) (B1)
                 (A1) (B1) (B2) (B2) (A1) (B2) (A1) (B1) (A2) (A1)
                 (B2) (B1) (A1) (B1) (A2) (B1) (A2) (A2) (B1) (A2)
                 (B1) (A2)
       Virtual   (B1) (A2) (B1) (A2) (B1) (B1) (A2) (B1) (A2) (A2)
                 (B2) (A1) (A1) (A1) (B2) (B1) (A2) (A1) (B2) (A1)
                 (B2) (A1) (A2) (B2) (A1) (A1) (A1) (B2) (A1) (B2)
                 (A1) (B2) (A1) (B2) (A2) (B2) (A1) (B2) (A1) (B2)
                 (A1) (B1) (B2) (B2) (A1) (A1) (A1) (B1) (B2) (B2)
                 (A1) (A2) (B2) (B1) (A1) (A1) (B2) (A1) (A2) (A1)
                 (B2) (B1) (A2) (B2) (B1) (A1) (A1) (B2) (A1) (B1)
                 (A1) (A2) (B1) (A1) (B2) (A1) (A2) (B1) (B2) (B1)
                 (B2) (A2) (B2) (A1) (B2) (A1) (B2) (B1) (A1) (A1)
                 (B2) (A1) (A2) (B1) (A1) (B2) (B2) (B2) (A1) (B1)
                 (B2) (A1) (B2) (A2) (B1) (B2) (A1) (B2) (A1) (A1)
                 (A1) (B2) (A2) (A2) (B1) (B2) (A1) (B2) (B1) (B2)
                 (B2) (A1) (B2) (A2) (A1) (B2) (B2) (A1) (A1) (A2)
                 (B1) (B2) (A1) (B2) (A2) (B1) (A1) (B2) (A1) (A1)
                 (B2) (A1) (B2) (B1) (A1) (B2) (B1) (B2) (A2) (B2)
                 (A1) (B2) (A1) (B2) (B2) (B1) (B2) (A2) (A1) (B2)
                 (A2) (A1) (B1) (B2) (B2) (B2) (A1) (A1) (A1) (B1)
                 (B2) (B2) (A1) (A1) (A2) (A1) (B1) (A2) (B2) (B2)
                 (A1) (B1) (A1) (A2) (A1) (B2) (B1) (A1) (B2) (A1)
                 (B1) (B2) (A2) (A1) (B2) (A1) (A1) (A2) (A1) (B2)
                 (A1) (A1) (B2) (A1) (A1) (B2) (B1) (B1) (B2) (B2)
                 (A1) (A2) (B2) (A1) (B2) (B1) (A1) (A1) (A1) (A2)
                 (B2) (B1) (A2) (B2) (A1) (B2) (A1) (B2) (B1) (A2)
                 (A1) (B2) (A2) (B2) (B2) (A1) (A1) (A2) (B1) (A1)
                 (A1) (B2) (B1) (A1) (B2) (A1) (A2) (B2) (A2) (B1)
                 (A1) (B1) (B1) (A2) (B2) (A1) (B2) (A2) (B1) (B2)
                 (A1) (A1) (B2) (A1) (B1) (A1) (B2) (A2) (B2) (A2)
                 (A1) (A1) (B2) (A1) (B1) (A1) (B2) (B1) (B2) (B2)
                 (B1) (A1) (B2) (A2) (A2) (A1) (B2) (B1) (A1) (B2)
                 (A2) (B1) (B2) (B2) (A1) (A2) (B2) (A1) (B1) (A1)
                 (B2) (A2) (B2) (A1) (B1) (A1) (B2) (A2) (B2) (B1)
                 (A1) (A1) (A2) (B2) (B2) (B2) (B1) (A1) (A1) (B2)
                 (A2) (A1) (B1) (B2) (A1) (A2) (A1) (A1) (B2) (A2)
                 (B2) (B2) (B1) (A1) (A1) (B2) (A2) (B1) (A1) (A2)
                 (B2) (B2) (B1) (B1) (A2) (A1) (B1) (A1) (A1) (A2)
                 (B2) (B2) (B2) (A2) (A1) (B2) (B1) (B2) (B2) (B1)
                 (A1) (A2) (B2) (A1) (B1) (A2) (B2) (A2) (A2) (B1)
                 (B1) (A2) (A1) (A2) (A2) (A1) (A1) (B2) (B1) (B2)
                 (A2) (B1) (B1) (A1) (B2) (A1) (B2) (A2) (A1) (B1)
                 (A1) (A2) (B2) (A1) (B2) (B1) (A1) (A1) (A2) (A1)
                 (B2) (A1) (B2) (A1) (B2) (A1) (B2) (A1) (B2) (A1)
                 (B2) (A1) (B2) (A1) (B2) (A1) (A2) (B2) (A1) (A2)
                 (B2) (A1) (B2) (A2) (B1) (B2) (A1) (B2) (B1) (A1)
                 (A1) (B2) (A1) (A2) (B1) (B2) (A1) (A2) (B1) (A1)
                 (B1) (A1) (B2) (A1) (A1) (A2) (B2) (A1) (B2) (B1)
                 (B1) (B2) (A1) (B2) (A1) (A1) (B2) (A1) (B2) (B1)
                 (A1) (B2) (B2) (A1) (B1) (A2) (B2) (A1) (B1) (A2)
                 (A1) (B2) (B1) (B2) (A1) (B1) (A2) (A1) (B2) (A2)
                 (B1) (A1) (B1) (B2) (A2) (B1) (A1) (B2) (B2) (A1)
                 (B2) (B1) (A1) (A2) (B1) (A2) (A1) (B1) (A2) (B1)
                 (B2) (A1) (B2) (A1) (B2) (B1) (A1) (B2) (B1) (A2)
                 (A1) (A1) (B2) (A2) (A1) (B1) (B2) (A2) (B2) (A1)
                 (A1) (A2) (B2) (A1) (B2) (B1) (A1) (B2) (B1) (A2)
                 (A1) (B2) (A2) (B1) (A1) (B2) (A1) (B2) (B1) (B1)
                 (B2) (A1) (B2) (A2) (B2) (B1) (A1) (B1) (B1) (B2)
                 (A2) (B1) (B2) (A1) (B2) (A1) (A2) (B1) (A2) (B2)
                 (A2) (A1) (A1) (B1) (B2) (B1) (A2) (A1) (A1) (A1)
                 (B2) (A1) (B1) (B2) (A2) (A1) (B1) (B2) (A2) (B1)
                 (A1) (B2) (A1) (B1) (A2) (A1) (B2) (A2) (A1) (B1)
                 (B2) (A1) (A2) (B2) (B2) (B1) (A2) (A2) (B1) (B1)
                 (B2) (B2) (A1) (A1) (B2) (B1) (A2) (A1) (A1) (A2)
                 (B2) (A1) (A2) (B1) (A1) (A1) (B2) (B2) (B1) (A1)
                 (A2) (B2) (B2) (B2) (A1) (A2) (A1) (B2) (B1) (B1)
                 (A1) (A2) (B2) (A2) (B1) (B2) (A1) (B2) (A2) (B1)
                 (A2) (B2) (A1) (A1) (B1) (B2) (A2) (A1) (B2) (A2)
                 (B1) (A1) (A2) (B2) (B1) (B2) (B1) (B2) (A1) (A2)
                 (B2) (A1) (B1) (A1) (B2) (A2) (A2) (A1) (A2) (B2)
                 (A1) (B1) (B2) (A2) (A2) (A1) (B2) (A2) (A1) (A1)
                 (B2) (B2) (A1) (B2) (B2) (B1) (A1) (A2) (B2) (A1)
                 (A1) (B2) (A2) (B1) (A1) (B2) (A2) (A1) (A1) (B2)
                 (B2) (B2) (A1) (B2) (A1) (B2) (A1) (A1) (A1) (B2)
                 (B1) (B2) (A2) (B2) (A2) (B2) (A1) (B1) (B1) (A1)
                 (B2) (B2) (B1) (A2) (A2) (A1) (B1) (A2) (A1) (B2)
                 (B1) (B2) (A1) (B2) (B1) (A2) (B1) (A1) (A1) (B2)
                 (A1) (B1) (A1) (A2) (B2) (A2) (A1) (A2) (B1) (B2)
                 (A1) (B2) (B2) (A1) (B1) (A2) (B1) (A1) (B2) (B2)
                 (A2) (A1) (A1) (B2) (A1) (A2) (B2) (B2) (A2) (A1)
                 (B2) (A1) (A2) (B1) (B2) (A1) (B1) (B2) (A2) (A2)
                 (A1) (A1) (B2) (B2) (A1) (B2) (A1) (B2) (B2) (A1)
                 (A2) (A2) (A1) (B2) (B2) (B2) (A1) (B2) (A1) (A2)
                 (B2) (A2) (A1) (A1) (B2) (A1) (A1) (B2) (B2) (A1)
                 (B2) (A1) (B2) (B2) (A1) (A1) (B2) (A1) (B2) (B2)
                 (A1) (B2) (A1) (B2) (A1) (B2) (A1) (A1) (B2) (B2)
                 (B2) (B2) (A1) (B2) (B2) (B2) (B2) (A1) (B2) (B2)
                 (B2) (B2) (B2) (B2) (A1) (A1) (B2) (A1) (A1) (B2)
                 (A1) (A1) (B2) (A1) (A1) (B2) (B2) (A1) (A1) (B2)
                 (A1) (B2) (A1) (B2) (A1) (B2) (B2) (B2) (A1) (B2)
                 (B2) (B2)
 Beta  Orbitals:
       Occupied  (B2) (A1) (A1) (A1) (B2) (B2) (A1) (B2) (B2) (A1)
                 (B2) (A1) (B2) (A1) (B2) (A1) (A1) (B2) (B2) (A1)
                 (A1) (B2) (A1) (B2) (A1) (B2) (A1) (B2) (A1) (A1)
                 (B2) (A1) (A1) (A1) (B2) (A1) (B2) (B2) (A1) (B2)
                 (A1) (B2) (A1) (A1) (B2) (B2) (A1) (A1) (B2) (A1)
                 (A1) (B2) (A1) (B2) (A1) (A1) (A1) (B2) (B2) (A1)
                 (B2) (A1) (B2) (A1) (A1) (B2) (A1) (B2) (B2) (B1)
                 (A1) (B1) (B2) (B2) (A1) (B2) (A1) (B1) (A2) (A1)
                 (B2) (B1) (A1) (B1) (A2) (B1) (A2) (A2) (B1) (A2)
                 (B1) (A2)
       Virtual   (B1) (A2) (B1) (A2) (B1) (B1) (A2) (B1) (A2) (A2)
                 (B2) (A1) (A1) (A1) (B2) (B1) (A2) (A1) (B2) (A1)
                 (B2) (A1) (A2) (B2) (A1) (A1) (A1) (B2) (A1) (B2)
                 (A1) (B2) (A1) (B2) (A2) (B2) (A1) (B2) (A1) (B2)
                 (A1) (B1) (B2) (B2) (A1) (A1) (A1) (B1) (B2) (B2)
                 (A1) (A2) (B2) (B1) (A1) (A1) (B2) (A1) (A2) (A1)
                 (B2) (B1) (A2) (B2) (B1) (A1) (A1) (B2) (A1) (B1)
                 (A1) (A2) (B1) (A1) (B2) (A1) (A2) (B1) (B2) (B1)
                 (B2) (A2) (B2) (A1) (B2) (A1) (B2) (B1) (A1) (A1)
                 (B2) (A1) (A2) (B1) (A1) (B2) (B2) (B2) (A1) (B1)
                 (B2) (A1) (B2) (A2) (B1) (B2) (A1) (B2) (A1) (A1)
                 (A1) (B2) (A2) (A2) (B1) (B2) (A1) (B2) (B1) (B2)
                 (B2) (A1) (B2) (A2) (A1) (B2) (B2) (A1) (A1) (A2)
                 (B1) (B2) (A1) (B2) (A2) (B1) (A1) (B2) (A1) (A1)
                 (B2) (A1) (B2) (B1) (A1) (B2) (B1) (B2) (A2) (B2)
                 (A1) (B2) (A1) (B2) (B2) (B1) (B2) (A2) (A1) (B2)
                 (A2) (A1) (B1) (B2) (B2) (B2) (A1) (A1) (A1) (B1)
                 (B2) (B2) (A1) (A1) (A2) (A1) (B1) (A2) (B2) (B2)
                 (A1) (B1) (A1) (A2) (A1) (B2) (B1) (A1) (B2) (A1)
                 (B1) (B2) (A2) (A1) (B2) (A1) (A1) (A2) (A1) (B2)
                 (A1) (A1) (B2) (A1) (A1) (B2) (B1) (B1) (B2) (B2)
                 (A1) (A2) (B2) (A1) (B2) (B1) (A1) (A1) (A1) (A2)
                 (B2) (B1) (A2) (B2) (A1) (B2) (A1) (B2) (B1) (A2)
                 (A1) (B2) (A2) (B2) (B2) (A1) (A1) (A2) (B1) (A1)
                 (A1) (B2) (B1) (A1) (B2) (A1) (A2) (B2) (A2) (B1)
                 (A1) (B1) (B1) (A2) (B2) (A1) (B2) (A2) (B1) (B2)
                 (A1) (A1) (B2) (A1) (B1) (A1) (B2) (A2) (B2) (A2)
                 (A1) (A1) (B2) (A1) (B1) (A1) (B2) (B1) (B2) (B2)
                 (B1) (A1) (B2) (A2) (A2) (A1) (B2) (B1) (A1) (B2)
                 (A2) (B1) (B2) (B2) (A1) (A2) (B2) (A1) (B1) (A1)
                 (B2) (A2) (B2) (A1) (B1) (A1) (B2) (A2) (B2) (B1)
                 (A1) (A1) (A2) (B2) (B2) (B2) (B1) (A1) (A1) (B2)
                 (A2) (A1) (B1) (B2) (A1) (A2) (A1) (A1) (B2) (A2)
                 (B2) (B2) (B1) (A1) (A1) (B2) (A2) (B1) (A1) (A2)
                 (B2) (B2) (B1) (B1) (A2) (A1) (B1) (A1) (A1) (A2)
                 (B2) (B2) (B2) (A2) (A1) (B2) (B1) (B2) (B2) (B1)
                 (A1) (A2) (B2) (A1) (B1) (A2) (B2) (A2) (A2) (B1)
                 (B1) (A2) (A1) (A2) (A2) (A1) (A1) (B2) (B1) (B2)
                 (A2) (B1) (B1) (A1) (B2) (A1) (B2) (A2) (A1) (B1)
                 (A1) (A2) (B2) (A1) (B2) (B1) (A1) (A1) (A2) (A1)
                 (B2) (A1) (B2) (A1) (B2) (A1) (B2) (A1) (B2) (A1)
                 (B2) (A1) (B2) (A1) (B2) (A1) (A2) (B2) (A1) (A2)
                 (B2) (A1) (B2) (A2) (B1) (B2) (A1) (B2) (B1) (A1)
                 (A1) (B2) (A1) (A2) (B1) (B2) (A1) (A2) (B1) (A1)
                 (B1) (A1) (B2) (A1) (A1) (A2) (B2) (A1) (B2) (B1)
                 (B1) (B2) (A1) (B2) (A1) (A1) (B2) (A1) (B2) (B1)
                 (A1) (B2) (B2) (A1) (B1) (A2) (B2) (A1) (B1) (A2)
                 (A1) (B2) (B1) (B2) (A1) (B1) (A2) (A1) (B2) (A2)
                 (B1) (A1) (B1) (B2) (A2) (B1) (A1) (B2) (B2) (A1)
                 (B2) (B1) (A1) (A2) (B1) (A2) (A1) (B1) (A2) (B1)
                 (B2) (A1) (B2) (A1) (B2) (B1) (A1) (B2) (B1) (A2)
                 (A1) (A1) (B2) (A2) (A1) (B1) (B2) (A2) (B2) (A1)
                 (A1) (A2) (B2) (A1) (B2) (B1) (A1) (B2) (B1) (A2)
                 (A1) (B2) (A2) (B1) (A1) (B2) (A1) (B2) (B1) (B1)
                 (B2) (A1) (B2) (A2) (B2) (B1) (A1) (B1) (B1) (B2)
                 (A2) (B1) (B2) (A1) (B2) (A1) (A2) (B1) (A2) (B2)
                 (A2) (A1) (A1) (B1) (B2) (B1) (A2) (A1) (A1) (A1)
                 (B2) (A1) (B1) (B2) (A2) (A1) (B1) (B2) (A2) (B1)
                 (A1) (B2) (A1) (B1) (A2) (A1) (B2) (A2) (A1) (B1)
                 (B2) (A1) (A2) (B2) (B2) (B1) (A2) (A2) (B1) (B1)
                 (B2) (B2) (A1) (A1) (B2) (B1) (A2) (A1) (A1) (A2)
                 (B2) (A1) (A2) (B1) (A1) (A1) (B2) (B2) (B1) (A1)
                 (A2) (B2) (B2) (B2) (A1) (A2) (A1) (B2) (B1) (B1)
                 (A1) (A2) (B2) (A2) (B1) (B2) (A1) (B2) (A2) (B1)
                 (A2) (B2) (A1) (A1) (B1) (B2) (A2) (A1) (B2) (A2)
                 (B1) (A1) (A2) (B2) (B1) (B2) (B1) (B2) (A1) (A2)
                 (B2) (A1) (B1) (A1) (B2) (A2) (A2) (A1) (A2) (B2)
                 (A1) (B1) (B2) (A2) (A2) (A1) (B2) (A2) (A1) (A1)
                 (B2) (B2) (A1) (B2) (B2) (B1) (A1) (A2) (B2) (A1)
                 (A1) (B2) (A2) (B1) (A1) (B2) (A2) (A1) (A1) (B2)
                 (B2) (B2) (A1) (B2) (A1) (B2) (A1) (A1) (A1) (B2)
                 (B1) (B2) (A2) (B2) (A2) (B2) (A1) (B1) (B1) (A1)
                 (B2) (B2) (B1) (A2) (A2) (A1) (B1) (A2) (A1) (B2)
                 (B1) (B2) (A1) (B2) (B1) (A2) (B1) (A1) (A1) (B2)
                 (A1) (B1) (A1) (A2) (B2) (A2) (A1) (A2) (B1) (B2)
                 (A1) (B2) (B2) (A1) (B1) (A2) (B1) (A1) (B2) (B2)
                 (A2) (A1) (A1) (B2) (A1) (A2) (B2) (B2) (A2) (A1)
                 (B2) (A1) (A2) (B1) (B2) (A1) (B1) (B2) (A2) (A2)
                 (A1) (A1) (B2) (B2) (A1) (B2) (A1) (B2) (B2) (A1)
                 (A2) (A2) (A1) (B2) (B2) (B2) (A1) (B2) (A1) (A2)
                 (B2) (A2) (A1) (A1) (B2) (A1) (A1) (B2) (B2) (A1)
                 (B2) (A1) (B2) (B2) (A1) (A1) (B2) (A1) (B2) (B2)
                 (A1) (B2) (A1) (B2) (A1) (B2) (A1) (A1) (B2) (B2)
                 (B2) (B2) (A1) (B2) (B2) (B2) (B2) (A1) (B2) (B2)
                 (B2) (B2) (B2) (B2) (A1) (A1) (B2) (A1) (A1) (B2)
                 (A1) (A1) (B2) (A1) (A1) (B2) (B2) (A1) (A1) (B2)
                 (A1) (B2) (A1) (B2) (A1) (B2) (B2) (B2) (A1) (B2)
                 (B2) (B2)
 The electronic state of the initial guess is 1-A1.
 Initial guess <Sx>= 0.0000 <Sy>= 0.0000 <Sz>= 0.0000 <S**2>=-0.0000 S=-0.0000
 Leave Link  401 at Mon Jan 20 22:57:47 2020, MaxMem=  6710886400 cpu:              81.5 elap:               5.3
 (Enter /opt/ohpc/pub/libs/gaussian/g16-A.03/sandybridge/g16/l502.exe)
 Integral symmetry usage will be decided dynamically.
 UHF open shell SCF:
 Using DIIS extrapolation, IDIIS=  1040.
 NGot=  6710886400 LenX=  6708414364 LenY=  6707194444
 Requested convergence on RMS density matrix=1.00D-08 within 128 cycles.
 Requested convergence on MAX density matrix=1.00D-06.
 Requested convergence on             energy=1.00D-06.
 No special actions if energy rises.
 Fock matrices will be formed incrementally for  20 cycles.
 Integral accuracy reduced to 1.0D-05 until final iterations.

 Cycle   1  Pass 0  IDiag  1:
 FoFJK:  IHMeth= 1 ICntrl=       0 DoSepK=T KAlg= 0 I1Cent=           0 FoldK=F
 IRaf=         1 NMat=       1 IRICut=       1 DoRegI=T DoRafI=F ISym2E= 1 IDoP0=0 IntGTp=1.
 FoFCou: FMM=F IPFlag=           0 FMFlag=      100000 FMFlg1=           0
         NFxFlg=           0 DoJE=T BraDBF=F KetDBF=F FulRan=T
         wScrn=  0.000000 ICntrl=       500 IOpCl=  0 I1Cent=           0 NGrid=           0
         NMat0=    1 NMatS0=      1 NMatT0=    0 NMatD0=    1 NMtDS0=    0 NMtDT0=    0
 Petite list used in FoFCou.
 E= -1075.61700221534    
 DIIS: error= 1.99D-02 at cycle   1 NSaved=   1.
 NSaved= 1 IEnMin= 1 EnMin= -1075.61700221534     IErMin= 1 ErrMin= 1.99D-02
 ErrMax= 1.99D-02  0.00D+00 EMaxC= 1.00D-01 BMatC= 1.50D+00 BMatP= 1.50D+00
 IDIUse=3 WtCom= 8.01D-01 WtEn= 1.99D-01
 Coeff-Com:  0.100D+01
 Coeff-En:   0.100D+01
 Coeff:      0.100D+01
 Gap=     0.209 Goal=   None    Shift=    0.000
 Gap=     0.209 Goal=   None    Shift=    0.000
 GapD=    0.209 DampG=1.000 DampE=0.500 DampFc=0.5000 IDamp=-1.
 Damping current iteration by 5.00D-01
 RMSDP=4.49D+02 MaxDP=5.05D+04              OVMax= 9.95D-01

 Problem detected with inexpensive integrals.
 Switching to full accuracy and repeating last cycle.
 Cycle   2  Pass 1  IDiag  1:
 E= -1075.61719792753     Delta-E=       -0.000195712193 Rises=F Damp=F
 DIIS: error= 1.99D-02 at cycle   1 NSaved=   1.
 NSaved= 1 IEnMin= 1 EnMin= -1075.61719792753     IErMin= 1 ErrMin= 1.99D-02
 ErrMax= 1.99D-02  0.00D+00 EMaxC= 1.00D-01 BMatC= 1.49D+00 BMatP= 1.49D+00
 IDIUse=3 WtCom= 8.01D-01 WtEn= 1.99D-01
 Coeff-Com:  0.100D+01
 Coeff-En:   0.100D+01
 Coeff:      0.100D+01
 Gap=     0.209 Goal=   None    Shift=    0.000
 Gap=     0.209 Goal=   None    Shift=    0.000
 GapD=    0.209 DampG=1.000 DampE=0.500 DampFc=0.5000 IDamp=-1.
 Damping current iteration by 5.00D-01
 RMSDP=1.45D-03 MaxDP=4.48D-02 DE=-1.96D-04 OVMax= 1.14D-01

 Cycle   3  Pass 1  IDiag  1:
 RMSU=  7.07D-04    CP:  9.71D-01
 E= -1075.82195416279     Delta-E=       -0.204756235256 Rises=F Damp=T
 DIIS: error= 5.60D-03 at cycle   2 NSaved=   2.
 NSaved= 2 IEnMin= 2 EnMin= -1075.82195416279     IErMin= 2 ErrMin= 5.60D-03
 ErrMax= 5.60D-03  0.00D+00 EMaxC= 1.00D-01 BMatC= 9.63D-02 BMatP= 1.49D+00
 IDIUse=3 WtCom= 9.44D-01 WtEn= 5.60D-02
 Coeff-Com: -0.154D+00 0.115D+01
 Coeff-En:   0.000D+00 0.100D+01
 Coeff:     -0.145D+00 0.114D+01
 Gap=     0.215 Goal=   None    Shift=    0.000
 Gap=     0.215 Goal=   None    Shift=    0.000
 GapD=    0.215 DampG=1.000 DampE=1.000 DampFc=1.0000 IDamp=-1.
 RMSDP=6.32D-04 MaxDP=5.92D-02 DE=-2.05D-01 OVMax= 5.22D-02

 Cycle   4  Pass 1  IDiag  1:
 RMSU=  5.63D-04    CP:  9.25D-01  1.12D+00
 E= -1075.99870962112     Delta-E=       -0.176755458336 Rises=F Damp=F
 DIIS: error= 3.60D-03 at cycle   3 NSaved=   3.
 NSaved= 3 IEnMin= 3 EnMin= -1075.99870962112     IErMin= 3 ErrMin= 3.60D-03
 ErrMax= 3.60D-03  0.00D+00 EMaxC= 1.00D-01 BMatC= 3.16D-02 BMatP= 9.63D-02
 IDIUse=3 WtCom= 9.64D-01 WtEn= 3.60D-02
 Coeff-Com: -0.928D-01 0.452D+00 0.641D+00
 Coeff-En:   0.000D+00 0.000D+00 0.100D+01
 Coeff:     -0.895D-01 0.435D+00 0.654D+00
 Gap=     0.213 Goal=   None    Shift=    0.000
 Gap=     0.213 Goal=   None    Shift=    0.000
 RMSDP=1.48D-04 MaxDP=7.30D-03 DE=-1.77D-01 OVMax= 3.03D-02

 Cycle   5  Pass 1  IDiag  1:
 RMSU=  1.31D-04    CP:  9.30D-01  1.11D+00  8.94D-01
 E= -1076.00325740126     Delta-E=       -0.004547780135 Rises=F Damp=F
 DIIS: error= 2.90D-03 at cycle   4 NSaved=   4.
 NSaved= 4 IEnMin= 4 EnMin= -1076.00325740126     IErMin= 4 ErrMin= 2.90D-03
 ErrMax= 2.90D-03  0.00D+00 EMaxC= 1.00D-01 BMatC= 1.25D-02 BMatP= 3.16D-02
 IDIUse=3 WtCom= 9.71D-01 WtEn= 2.90D-02
 Coeff-Com: -0.336D-01 0.129D+00 0.404D+00 0.501D+00
 Coeff-En:   0.000D+00 0.000D+00 0.315D+00 0.685D+00
 Coeff:     -0.326D-01 0.125D+00 0.401D+00 0.506D+00
 Gap=     0.212 Goal=   None    Shift=    0.000
 Gap=     0.212 Goal=   None    Shift=    0.000
 RMSDP=5.68D-05 MaxDP=3.29D-03 DE=-4.55D-03 OVMax= 1.37D-02

 Cycle   6  Pass 1  IDiag  1:
 RMSU=  4.97D-05    CP:  9.31D-01  1.11D+00  8.89D-01  7.99D-01
 E= -1076.00649992606     Delta-E=       -0.003242524801 Rises=F Damp=F
 DIIS: error= 3.99D-04 at cycle   5 NSaved=   5.
 NSaved= 5 IEnMin= 5 EnMin= -1076.00649992606     IErMin= 5 ErrMin= 3.99D-04
 ErrMax= 3.99D-04  0.00D+00 EMaxC= 1.00D-01 BMatC= 3.07D-04 BMatP= 1.25D-02
 IDIUse=3 WtCom= 9.96D-01 WtEn= 3.99D-03
 Coeff-Com: -0.843D-02 0.296D-01 0.128D+00 0.213D+00 0.637D+00
 Coeff-En:   0.000D+00 0.000D+00 0.000D+00 0.000D+00 0.100D+01
 Coeff:     -0.839D-02 0.295D-01 0.127D+00 0.213D+00 0.639D+00
 Gap=     0.212 Goal=   None    Shift=    0.000
 Gap=     0.212 Goal=   None    Shift=    0.000
 RMSDP=1.77D-05 MaxDP=9.59D-04 DE=-3.24D-03 OVMax= 2.52D-03

 Cycle   7  Pass 1  IDiag  1:
 RMSU=  1.41D-05    CP:  9.31D-01  1.11D+00  9.02D-01  8.49D-01  1.02D+00
 E= -1076.00657308332     Delta-E=       -0.000073157260 Rises=F Damp=F
 DIIS: error= 1.80D-04 at cycle   6 NSaved=   6.
 NSaved= 6 IEnMin= 6 EnMin= -1076.00657308332     IErMin= 6 ErrMin= 1.80D-04
 ErrMax= 1.80D-04  0.00D+00 EMaxC= 1.00D-01 BMatC= 5.02D-05 BMatP= 3.07D-04
 IDIUse=3 WtCom= 9.98D-01 WtEn= 1.80D-03
 Coeff-Com: -0.883D-03 0.248D-02 0.260D-01 0.600D-01 0.335D+00 0.578D+00
 Coeff-En:   0.000D+00 0.000D+00 0.000D+00 0.000D+00 0.163D-01 0.984D+00
 Coeff:     -0.882D-03 0.248D-02 0.260D-01 0.599D-01 0.334D+00 0.579D+00
 Gap=     0.212 Goal=   None    Shift=    0.000
 Gap=     0.212 Goal=   None    Shift=    0.000
 RMSDP=5.75D-06 MaxDP=3.47D-04 DE=-7.32D-05 OVMax= 1.12D-03

 Cycle   8  Pass 1  IDiag  1:
 RMSU=  4.18D-06    CP:  9.31D-01  1.10D+00  9.02D-01  8.65D-01  1.07D+00
                    CP:  1.08D+00
 E= -1076.00658729362     Delta-E=       -0.000014210304 Rises=F Damp=F
 DIIS: error= 6.24D-05 at cycle   7 NSaved=   7.
 NSaved= 7 IEnMin= 7 EnMin= -1076.00658729362     IErMin= 7 ErrMin= 6.24D-05
 ErrMax= 6.24D-05  0.00D+00 EMaxC= 1.00D-01 BMatC= 2.19D-06 BMatP= 5.02D-05
 IDIUse=1 WtCom= 1.00D+00 WtEn= 0.00D+00
 Coeff-Com:  0.103D-02-0.378D-02-0.120D-01-0.165D-01-0.554D-02 0.124D+00
 Coeff-Com:  0.913D+00
 Coeff:      0.103D-02-0.378D-02-0.120D-01-0.165D-01-0.554D-02 0.124D+00
 Coeff:      0.913D+00
 Gap=     0.212 Goal=   None    Shift=    0.000
 Gap=     0.212 Goal=   None    Shift=    0.000
 RMSDP=4.05D-06 MaxDP=2.44D-04 DE=-1.42D-05 OVMax= 6.73D-04

 Cycle   9  Pass 1  IDiag  1:
 RMSU=  1.75D-06    CP:  9.31D-01  1.10D+00  9.02D-01  8.77D-01  1.12D+00
                    CP:  1.21D+00  1.16D+00
 E= -1076.00658872831     Delta-E=       -0.000001434685 Rises=F Damp=F
 DIIS: error= 2.79D-05 at cycle   8 NSaved=   8.
 NSaved= 8 IEnMin= 8 EnMin= -1076.00658872831     IErMin= 8 ErrMin= 2.79D-05
 ErrMax= 2.79D-05  0.00D+00 EMaxC= 1.00D-01 BMatC= 9.18D-07 BMatP= 2.19D-06
 IDIUse=1 WtCom= 1.00D+00 WtEn= 0.00D+00
 Coeff-Com:  0.642D-03-0.229D-02-0.984D-02-0.170D-01-0.467D-01-0.124D-01
 Coeff-Com:  0.481D+00 0.606D+00
 Coeff:      0.642D-03-0.229D-02-0.984D-02-0.170D-01-0.467D-01-0.124D-01
 Coeff:      0.481D+00 0.606D+00
 Gap=     0.212 Goal=   None    Shift=    0.000
 Gap=     0.212 Goal=   None    Shift=    0.000
 RMSDP=9.96D-07 MaxDP=5.11D-05 DE=-1.43D-06 OVMax= 2.54D-04

 Cycle  10  Pass 1  IDiag  1:
 RMSU=  5.16D-07    CP:  9.31D-01  1.10D+00  9.02D-01  8.79D-01  1.13D+00
                    CP:  1.24D+00  1.26D+00  1.06D+00
 E= -1076.00658907954     Delta-E=       -0.000000351226 Rises=F Damp=F
 DIIS: error= 9.20D-06 at cycle   9 NSaved=   9.
 NSaved= 9 IEnMin= 9 EnMin= -1076.00658907954     IErMin= 9 ErrMin= 9.20D-06
 ErrMax= 9.20D-06  0.00D+00 EMaxC= 1.00D-01 BMatC= 5.38D-08 BMatP= 9.18D-07
 IDIUse=1 WtCom= 1.00D+00 WtEn= 0.00D+00
 Coeff-Com: -0.591D-04 0.171D-03 0.320D-04-0.629D-03-0.687D-02-0.210D-01
 Coeff-Com: -0.545D-01 0.141D+00 0.942D+00
 Coeff:     -0.591D-04 0.171D-03 0.320D-04-0.629D-03-0.687D-02-0.210D-01
 Coeff:     -0.545D-01 0.141D+00 0.942D+00
 Gap=     0.212 Goal=   None    Shift=    0.000
 Gap=     0.212 Goal=   None    Shift=    0.000
 RMSDP=3.29D-07 MaxDP=1.29D-05 DE=-3.51D-07 OVMax= 1.21D-04

 Cycle  11  Pass 1  IDiag  1:
 RMSU=  2.55D-07    CP:  9.31D-01  1.10D+00  9.02D-01  8.79D-01  1.13D+00
                    CP:  1.25D+00  1.28D+00  1.14D+00  1.17D+00
 E= -1076.00658912022     Delta-E=       -0.000000040684 Rises=F Damp=F
 DIIS: error= 2.74D-06 at cycle  10 NSaved=  10.
 NSaved=10 IEnMin=10 EnMin= -1076.00658912022     IErMin=10 ErrMin= 2.74D-06
 ErrMax= 2.74D-06  0.00D+00 EMaxC= 1.00D-01 BMatC= 1.04D-08 BMatP= 5.38D-08
 IDIUse=1 WtCom= 1.00D+00 WtEn= 0.00D+00
 Coeff-Com: -0.941D-04 0.311D-03 0.102D-02 0.152D-02 0.181D-02-0.763D-02
 Coeff-Com: -0.750D-01-0.332D-02 0.403D+00 0.678D+00
 Coeff:     -0.941D-04 0.311D-03 0.102D-02 0.152D-02 0.181D-02-0.763D-02
 Coeff:     -0.750D-01-0.332D-02 0.403D+00 0.678D+00
 Gap=     0.212 Goal=   None    Shift=    0.000
 Gap=     0.212 Goal=   None    Shift=    0.000
 RMSDP=1.22D-07 MaxDP=6.87D-06 DE=-4.07D-08 OVMax= 2.92D-05

 Cycle  12  Pass 1  IDiag  1:
 RMSU=  7.74D-08    CP:  9.31D-01  1.10D+00  9.02D-01  8.79D-01  1.13D+00
                    CP:  1.24D+00  1.28D+00  1.15D+00  1.26D+00  1.09D+00
 E= -1076.00658912461     Delta-E=       -0.000000004391 Rises=F Damp=F
 DIIS: error= 1.13D-06 at cycle  11 NSaved=  11.
 NSaved=11 IEnMin=11 EnMin= -1076.00658912461     IErMin=11 ErrMin= 1.13D-06
 ErrMax= 1.13D-06  0.00D+00 EMaxC= 1.00D-01 BMatC= 1.69D-09 BMatP= 1.04D-08
 IDIUse=1 WtCom= 1.00D+00 WtEn= 0.00D+00
 Coeff-Com: -0.384D-04 0.131D-03 0.503D-03 0.881D-03 0.198D-02-0.286D-03
 Coeff-Com: -0.288D-01-0.253D-01 0.430D-01 0.316D+00 0.692D+00
 Coeff:     -0.384D-04 0.131D-03 0.503D-03 0.881D-03 0.198D-02-0.286D-03
 Coeff:     -0.288D-01-0.253D-01 0.430D-01 0.316D+00 0.692D+00
 Gap=     0.212 Goal=   None    Shift=    0.000
 Gap=     0.212 Goal=   None    Shift=    0.000
 RMSDP=6.04D-08 MaxDP=3.61D-06 DE=-4.39D-09 OVMax= 1.09D-05

 Cycle  13  Pass 1  IDiag  1:
 RMSU=  3.57D-08    CP:  9.31D-01  1.10D+00  9.02D-01  8.79D-01  1.13D+00
                    CP:  1.24D+00  1.28D+00  1.16D+00  1.28D+00  1.14D+00
                    CP:  1.21D+00
 E= -1076.00658912528     Delta-E=       -0.000000000667 Rises=F Damp=F
 DIIS: error= 4.34D-07 at cycle  12 NSaved=  12.
 NSaved=12 IEnMin=12 EnMin= -1076.00658912528     IErMin=12 ErrMin= 4.34D-07
 ErrMax= 4.34D-07  0.00D+00 EMaxC= 1.00D-01 BMatC= 1.19D-10 BMatP= 1.69D-09
 IDIUse=1 WtCom= 1.00D+00 WtEn= 0.00D+00
 Coeff-Com: -0.305D-06 0.222D-05 0.298D-04 0.879D-04 0.342D-03 0.731D-03
 Coeff-Com: -0.116D-03-0.628D-02-0.293D-01 0.120D-01 0.190D+00 0.833D+00
 Coeff:     -0.305D-06 0.222D-05 0.298D-04 0.879D-04 0.342D-03 0.731D-03
 Coeff:     -0.116D-03-0.628D-02-0.293D-01 0.120D-01 0.190D+00 0.833D+00
 Gap=     0.212 Goal=   None    Shift=    0.000
 Gap=     0.212 Goal=   None    Shift=    0.000
 RMSDP=2.41D-08 MaxDP=9.60D-07 DE=-6.67D-10 OVMax= 4.71D-06

 Cycle  14  Pass 1  IDiag  1:
 RMSU=  1.22D-08    CP:  9.31D-01  1.10D+00  9.02D-01  8.79D-01  1.13D+00
                    CP:  1.24D+00  1.27D+00  1.16D+00  1.28D+00  1.16D+00
                    CP:  1.33D+00  1.18D+00
 E= -1076.00658912540     Delta-E=       -0.000000000128 Rises=F Damp=F
 DIIS: error= 1.98D-07 at cycle  13 NSaved=  13.
 NSaved=13 IEnMin=13 EnMin= -1076.00658912540     IErMin=13 ErrMin= 1.98D-07
 ErrMax= 1.98D-07  0.00D+00 EMaxC= 1.00D-01 BMatC= 5.45D-11 BMatP= 1.19D-10
 IDIUse=1 WtCom= 1.00D+00 WtEn= 0.00D+00
 Coeff-Com:  0.693D-05-0.227D-04-0.777D-04-0.116D-03-0.171D-03 0.504D-03
 Coeff-Com:  0.548D-02 0.137D-02-0.241D-01-0.535D-01-0.261D-01 0.461D+00
 Coeff-Com:  0.636D+00
 Coeff:      0.693D-05-0.227D-04-0.777D-04-0.116D-03-0.171D-03 0.504D-03
 Coeff:      0.548D-02 0.137D-02-0.241D-01-0.535D-01-0.261D-01 0.461D+00
 Coeff:      0.636D+00
 Gap=     0.212 Goal=   None    Shift=    0.000
 Gap=     0.212 Goal=   None    Shift=    0.000
 RMSDP=8.36D-09 MaxDP=2.77D-07 DE=-1.28D-10 OVMax= 1.95D-06

 SCF Done:  E(ULC-wHPBE) =  -1076.00658913     A.U. after   14 cycles
            NFock= 14  Conv=0.84D-08     -V/T= 2.0052
 <Sx>= 0.0000 <Sy>= 0.0000 <Sz>= 0.0000 <S**2>=-0.0000 S=-0.0000
 <L.S>= 0.000000000000E+00
 KE= 1.070445685233D+03 PE=-6.935833134611D+03 EE= 2.570145662068D+03
 Annihilation of the first spin contaminant:
 S**2 before annihilation    -0.0000,   after    -0.0000
 Leave Link  502 at Mon Jan 20 23:13:59 2020, MaxMem=  6710886400 cpu:           15521.1 elap:             971.6
 (Enter /opt/ohpc/pub/libs/gaussian/g16-A.03/sandybridge/g16/l801.exe)
 DoSCS=F DFT=T ScalE2(SS,OS)=  1.000000  1.000000
 ExpMin= 9.52D-02 ExpMax= 1.36D+04 ExpMxC= 4.63D+02 IAcc=3 IRadAn=         5 AccDes= 0.00D+00
 HarFok:  IExCor=  205 AccDes= 0.00D+00 IRadAn=         5 IDoV=-2 UseB2=F ITyADJ=14
 ICtDFT= 12500011 ScaDFX=  1.000000  1.000000  1.000000  1.000000
 GSVD:  LWork=       -1008 too small for GESVD, short by        4340 words or        4340 for optimal perf.
 Largest valence mixing into a core orbital is  4.97D-05
 Largest core mixing into a valence orbital is  1.70D-05
 Largest valence mixing into a core orbital is  4.97D-05
 Largest core mixing into a valence orbital is  1.70D-05
 Range of M.O.s used for correlation:    29   964
 NBasis=   964 NAE=    92 NBE=    92 NFC=    28 NFV=     0
 NROrb=    936 NOA=    64 NOB=    64 NVA=   872 NVB=   872

 **** Warning!!: The largest alpha MO coefficient is  0.13166376D+03


 **** Warning!!: The largest beta MO coefficient is  0.13166376D+03

 Leave Link  801 at Mon Jan 20 23:14:00 2020, MaxMem=  6710886400 cpu:               9.5 elap:               0.7
 (Enter /opt/ohpc/pub/libs/gaussian/g16-A.03/sandybridge/g16/l914.exe)
 UHF ground state
 Two-electron integrals replicated using symmetry.
 MDV=  6710886400 DFT=T DoStab=F Mixed=T DoRPA=T DoScal=F NonHer=T
 Making orbital integer symmetry assigments:
 Orbital symmetries:
 Alpha Orbitals:
       Occupied  (A1) (B2) (B2) (A1) (A1) (B2) (A1) (B2) (A1) (B2)
                 (A1) (B2) (B2) (A1) (A1) (B2) (B2) (A1) (A1) (A1)
                 (B2) (B2) (B2) (A1) (B2) (A1) (B2) (A1) (A1) (A1)
                 (A1) (B2) (A1) (A1) (B2) (A1) (B2) (B2) (A1) (B2)
                 (A1) (B2) (A1) (A1) (B2) (B2) (A1) (A1) (A1) (B2)
                 (B2) (A1) (B2) (A1) (A1) (A1) (A1) (B2) (B2) (B2)
                 (A1) (A1) (B2) (B1) (A1) (B2) (B1) (A1) (B2) (A1)
                 (B2) (A1) (B1) (B2) (A2) (B2) (A1) (A1) (B1) (B2)
                 (A1) (A2) (B2) (B1) (A1) (A2) (B1) (A2) (B1) (A2)
                 (B1) (A2)
       Virtual   (B1) (A2) (B1) (A2) (B1) (B1) (A2) (B1) (B2) (A2)
                 (A1) (A1) (A1) (B2) (A1) (B2) (A2) (B2) (A1) (B2)
                 (A1) (A1) (A1) (A1) (B1) (B2) (B2) (A2) (A1) (B2)
                 (A2) (A1) (A1) (B2) (B2) (A1) (B2) (B1) (A1) (B2)
                 (B1) (A1) (A2) (A1) (B2) (A1) (B1) (A2) (B2) (B2)
                 (A1) (B1) (B2) (A1) (A2) (A1) (B2) (B1) (A2) (B2)
                 (B2) (A1) (B2) (B1) (A1) (A1) (A2) (A1) (B2) (A1)
                 (B1) (A1) (B2) (A1) (A2) (A1) (B1) (B1) (A1) (A2)
                 (A1) (B2) (B1) (B2) (A1) (B2) (A2) (B2) (A1) (B1)
                 (B2) (A1) (B2) (A1) (A1) (B2) (A2) (B2) (B1) (B2)
                 (A1) (A1) (B2) (B2) (A1) (B2) (B1) (A1) (A2) (A1)
                 (A2) (B2) (A1) (B1) (B2) (A2) (A1) (B1) (B2) (B2)
                 (B2) (A1) (B2) (A2) (A1) (B2) (A1) (B2) (B1) (A1)
                 (A2) (B2) (B2) (A1) (B2) (B1) (A1) (B2) (A1) (A1)
                 (B2) (B1) (A1) (B2) (B2) (A1) (A2) (B1) (B2) (A1)
                 (B2) (A2) (B2) (A1) (B2) (B2) (B1) (A1) (B2) (A1)
                 (B2) (A2) (B1) (A1) (A1) (A1) (B2) (B2) (B2) (A1)
                 (B2) (A1) (B1) (B2) (A1) (B2) (A2) (B2) (B1) (A2)
                 (A1) (A1) (B2) (A1) (A2) (B1) (B2) (A1) (A1) (B2)
                 (B1) (B2) (A1) (A1) (B1) (A2) (B2) (A1) (A1) (B2)
                 (A1) (A1) (A2) (A1) (B2) (B2) (A1) (B2) (A1) (B2)
                 (B1) (B1) (A1) (B2) (A2) (A1) (B2) (B1) (A1) (A1)
                 (B2) (A2) (A2) (B1) (B2) (A1) (B2) (B2) (A1) (A1)
                 (A2) (B1) (A2) (B2) (B2) (A1) (A1) (A2) (B1) (A1)
                 (A1) (B2) (A1) (B2) (B1) (A1) (A2) (B2) (A2) (B1)
                 (A1) (B2) (B1) (B1) (A2) (A1) (B2) (B2) (A2) (A1)
                 (B1) (B2) (A1) (A1) (A1) (B2) (B1) (B2) (A2) (B2)
                 (A2) (A1) (A1) (A1) (A1) (B2) (B2) (B2) (B1) (B1)
                 (B2) (A1) (B1) (A2) (B2) (A1) (A2) (B2) (A1) (B1)
                 (B2) (A2) (A1) (B2) (B1) (B2) (A1) (A1) (B2) (A2)
                 (B2) (B1) (A2) (B2) (A1) (A1) (A1) (B2) (B1) (A2)
                 (B1) (B2) (A1) (B2) (A2) (B2) (A1) (B2) (B1) (A1)
                 (A2) (B1) (A1) (B2) (A1) (A2) (A1) (B2) (A2) (B2)
                 (B2) (B1) (A1) (A2) (B2) (A1) (A1) (B1) (B2) (A2)
                 (A1) (B1) (A2) (B1) (B2) (B2) (A1) (B1) (A1) (A2)
                 (A1) (B2) (A2) (B2) (A1) (B2) (B1) (B2) (B2) (B1)
                 (A2) (A1) (B2) (A1) (B1) (A2) (B2) (A2) (A2) (B1)
                 (B1) (A2) (A2) (A1) (A2) (A1) (B1) (A1) (B2) (A2)
                 (B2) (B1) (B1) (A2) (B2) (A1) (B1) (B2) (A1) (A1)
                 (A2) (B2) (A1) (B1) (A1) (B2) (A1) (A2) (A1) (B2)
                 (A1) (A1) (B2) (A1) (B2) (A1) (B2) (A1) (A1) (B2)
                 (A2) (A1) (B2) (A2) (B2) (A1) (B2) (A1) (B2) (A1)
                 (A2) (B2) (A1) (B1) (B2) (B2) (A1) (A1) (B2) (B1)
                 (A1) (B2) (A2) (A1) (B1) (B2) (A2) (A1) (B1) (A1)
                 (B1) (B2) (A1) (A1) (A1) (B2) (A2) (B2) (A1) (B2)
                 (B1) (B1) (A1) (B2) (A1) (B2) (A1) (B2) (A1) (B2)
                 (A1) (B2) (B1) (A1) (B1) (A2) (A1) (B2) (B1) (B2)
                 (A2) (A1) (B1) (B2) (A1) (B1) (A1) (A2) (B2) (B1)
                 (A2) (A1) (B1) (B2) (B1) (A2) (A1) (B2) (B2) (A1)
                 (B1) (B2) (A1) (A2) (A2) (B1) (A1) (A2) (B1) (B1)
                 (B2) (A1) (B2) (A1) (B2) (B1) (A1) (B2) (A1) (B2)
                 (B1) (A1) (A2) (A1) (A2) (B2) (B1) (A2) (B2) (A1)
                 (A1) (A2) (B2) (A1) (B2) (B1) (A1) (B2) (B1) (A2)
                 (B2) (A1) (A2) (B1) (A1) (B2) (A1) (B2) (B1) (B1)
                 (B2) (B2) (A2) (A1) (B1) (B2) (A1) (B1) (B1) (A2)
                 (B2) (B1) (B2) (B2) (A2) (A1) (A1) (B1) (A2) (B2)
                 (A2) (A1) (B1) (A1) (B1) (B2) (A2) (A1) (A1) (B2)
                 (A1) (A1) (B1) (A2) (B2) (A1) (B1) (B2) (A2) (B1)
                 (A1) (B2) (B1) (A2) (A1) (A1) (B2) (A2) (A1) (B1)
                 (B2) (A2) (B2) (A1) (B2) (B1) (A2) (A2) (B1) (B2)
                 (B1) (B2) (A1) (B1) (B2) (A1) (A2) (A1) (A2) (A1)
                 (B2) (A2) (B1) (A1) (A1) (A1) (B2) (B2) (B1) (A2)
                 (A1) (B2) (B2) (B2) (A1) (A2) (B2) (B1) (A1) (B1)
                 (B2) (A2) (A1) (A2) (B1) (B2) (A1) (B2) (A2) (A2)
                 (B1) (B2) (A1) (A1) (B1) (B2) (A2) (A1) (B2) (A2)
                 (B1) (B2) (A2) (B1) (A1) (B1) (B2) (B2) (A1) (A2)
                 (B2) (A1) (B1) (A1) (A2) (B2) (A2) (A1) (A2) (B2)
                 (B1) (B2) (A1) (A2) (A2) (A1) (A2) (B2) (A1) (B2)
                 (A1) (B2) (B2) (B2) (B1) (A1) (A1) (A2) (B2) (A1)
                 (A1) (A2) (B2) (B1) (A1) (B2) (A2) (A1) (A1) (B2)
                 (B2) (B2) (A1) (B2) (A1) (B2) (A1) (B1) (A1) (A1)
                 (B2) (A2) (B2) (A2) (B2) (B1) (B2) (B1) (A1) (B1)
                 (B2) (A1) (B2) (A2) (A2) (A1) (B1) (A2) (B1) (B2)
                 (A1) (B2) (A1) (B1) (B2) (A2) (B1) (B1) (A1) (B2)
                 (A1) (A1) (A2) (A1) (B2) (A2) (A2) (B1) (A1) (B2)
                 (A1) (B2) (A2) (B1) (B2) (A1) (B1) (B2) (A1) (B2)
                 (A2) (A1) (B2) (A1) (A2) (A1) (B2) (A2) (B2) (A1)
                 (B2) (A2) (B1) (A1) (B1) (B2) (A1) (A2) (A2) (B2)
                 (A1) (B2) (A1) (B2) (A1) (B2) (B2) (A1) (B2) (A2)
                 (A2) (A1) (A1) (B2) (B2) (B2) (A1) (B2) (A2) (A1)
                 (A2) (B2) (A1) (B2) (A1) (A1) (A1) (B2) (B2) (A1)
                 (B2) (A1) (B2) (B2) (A1) (A1) (B2) (A1) (B2) (B2)
                 (A1) (B2) (A1) (B2) (A1) (B2) (A1) (A1) (B2) (B2)
                 (B2) (B2) (A1) (B2) (B2) (B2) (B2) (A1) (B2) (B2)
                 (B2) (B2) (B2) (B2) (A1) (A1) (B2) (A1) (A1) (B2)
                 (A1) (A1) (B2) (A1) (A1) (B2) (B2) (A1) (A1) (B2)
                 (A1) (B2) (A1) (B2) (A1) (B2) (B2) (B2) (A1) (B2)
                 (B2) (B2)
 Beta  Orbitals:
       Occupied  (A1) (B2) (B2) (A1) (A1) (B2) (A1) (B2) (A1) (B2)
                 (A1) (B2) (B2) (A1) (A1) (B2) (B2) (A1) (A1) (A1)
                 (B2) (B2) (B2) (A1) (B2) (A1) (B2) (A1) (A1) (A1)
                 (A1) (B2) (A1) (A1) (B2) (A1) (B2) (B2) (A1) (B2)
                 (A1) (B2) (A1) (A1) (B2) (B2) (A1) (A1) (A1) (B2)
                 (B2) (A1) (B2) (A1) (A1) (A1) (A1) (B2) (B2) (B2)
                 (A1) (A1) (B2) (B1) (A1) (B2) (B1) (A1) (B2) (A1)
                 (B2) (A1) (B1) (B2) (A2) (B2) (A1) (A1) (B1) (B2)
                 (A1) (A2) (B2) (B1) (A1) (A2) (B1) (A2) (B1) (A2)
                 (B1) (A2)
       Virtual   (B1) (A2) (B1) (A2) (B1) (B1) (A2) (B1) (B2) (A2)
                 (A1) (A1) (A1) (B2) (A1) (B2) (A2) (B2) (A1) (B2)
                 (A1) (A1) (A1) (A1) (B1) (B2) (B2) (A2) (A1) (B2)
                 (A2) (A1) (A1) (B2) (B2) (A1) (B2) (B1) (A1) (B2)
                 (B1) (A1) (A2) (A1) (B2) (A1) (B1) (A2) (B2) (B2)
                 (A1) (B1) (B2) (A1) (A2) (A1) (B2) (B1) (A2) (B2)
                 (B2) (A1) (B2) (B1) (A1) (A1) (A2) (A1) (B2) (A1)
                 (B1) (A1) (B2) (A1) (A2) (A1) (B1) (B1) (A1) (A2)
                 (A1) (B2) (B1) (B2) (A1) (B2) (A2) (B2) (A1) (B1)
                 (B2) (A1) (B2) (A1) (A1) (B2) (A2) (B2) (B1) (B2)
                 (A1) (A1) (B2) (B2) (A1) (B2) (B1) (A1) (A2) (A1)
                 (A2) (B2) (A1) (B1) (B2) (A2) (A1) (B1) (B2) (B2)
                 (B2) (A1) (B2) (A2) (A1) (B2) (A1) (B2) (B1) (A1)
                 (A2) (B2) (B2) (A1) (B2) (B1) (A1) (B2) (A1) (A1)
                 (B2) (B1) (A1) (B2) (B2) (A1) (A2) (B1) (B2) (A1)
                 (B2) (A2) (B2) (A1) (B2) (B2) (B1) (A1) (B2) (A1)
                 (B2) (A2) (B1) (A1) (A1) (A1) (B2) (B2) (B2) (A1)
                 (B2) (A1) (B1) (B2) (A1) (B2) (A2) (B2) (B1) (A2)
                 (A1) (A1) (B2) (A1) (A2) (B1) (B2) (A1) (A1) (B2)
                 (B1) (B2) (A1) (A1) (B1) (A2) (B2) (A1) (A1) (B2)
                 (A1) (A1) (A2) (A1) (B2) (B2) (A1) (B2) (A1) (B2)
                 (B1) (B1) (A1) (B2) (A2) (A1) (B2) (B1) (A1) (A1)
                 (B2) (A2) (A2) (B1) (B2) (A1) (B2) (B2) (A1) (A1)
                 (A2) (B1) (A2) (B2) (B2) (A1) (A1) (A2) (B1) (A1)
                 (A1) (B2) (A1) (B2) (B1) (A1) (A2) (B2) (A2) (B1)
                 (A1) (B2) (B1) (B1) (A2) (A1) (B2) (B2) (A2) (A1)
                 (B1) (B2) (A1) (A1) (A1) (B2) (B1) (B2) (A2) (B2)
                 (A2) (A1) (A1) (A1) (A1) (B2) (B2) (B2) (B1) (B1)
                 (B2) (A1) (B1) (A2) (B2) (A1) (A2) (B2) (A1) (B1)
                 (B2) (A2) (A1) (B2) (B1) (B2) (A1) (A1) (B2) (A2)
                 (B2) (B1) (A2) (B2) (A1) (A1) (A1) (B2) (B1) (A2)
                 (B1) (B2) (A1) (B2) (A2) (B2) (A1) (B2) (B1) (A1)
                 (A2) (B1) (A1) (B2) (A1) (A2) (A1) (B2) (A2) (B2)
                 (B2) (B1) (A1) (A2) (B2) (A1) (A1) (B1) (B2) (A2)
                 (A1) (B1) (A2) (B1) (B2) (B2) (A1) (B1) (A1) (A2)
                 (A1) (B2) (A2) (B2) (A1) (B2) (B1) (B2) (B2) (B1)
                 (A2) (A1) (B2) (A1) (B1) (A2) (B2) (A2) (A2) (B1)
                 (B1) (A2) (A2) (A1) (A2) (A1) (B1) (A1) (B2) (A2)
                 (B2) (B1) (B1) (A2) (B2) (A1) (B1) (B2) (A1) (A1)
                 (A2) (B2) (A1) (B1) (A1) (B2) (A1) (A2) (A1) (B2)
                 (A1) (A1) (B2) (A1) (B2) (A1) (B2) (A1) (A1) (B2)
                 (A2) (A1) (B2) (A2) (B2) (A1) (B2) (A1) (B2) (A1)
                 (A2) (B2) (A1) (B1) (B2) (B2) (A1) (A1) (B2) (B1)
                 (A1) (B2) (A2) (A1) (B1) (B2) (A2) (A1) (B1) (A1)
                 (B1) (B2) (A1) (A1) (A1) (B2) (A2) (B2) (A1) (B2)
                 (B1) (B1) (A1) (B2) (A1) (B2) (A1) (B2) (A1) (B2)
                 (A1) (B2) (B1) (A1) (B1) (A2) (A1) (B2) (B1) (B2)
                 (A2) (A1) (B1) (B2) (A1) (B1) (A1) (A2) (B2) (B1)
                 (A2) (A1) (B1) (B2) (B1) (A2) (A1) (B2) (B2) (A1)
                 (B1) (B2) (A1) (A2) (A2) (B1) (A1) (A2) (B1) (B1)
                 (B2) (A1) (B2) (A1) (B2) (B1) (A1) (B2) (A1) (B2)
                 (B1) (A1) (A2) (A1) (A2) (B2) (B1) (A2) (B2) (A1)
                 (A1) (A2) (B2) (A1) (B2) (B1) (A1) (B2) (B1) (A2)
                 (B2) (A1) (A2) (B1) (A1) (B2) (A1) (B2) (B1) (B1)
                 (B2) (B2) (A2) (A1) (B1) (B2) (A1) (B1) (B1) (A2)
                 (B2) (B1) (B2) (B2) (A2) (A1) (A1) (B1) (A2) (B2)
                 (A2) (A1) (B1) (A1) (B1) (B2) (A2) (A1) (A1) (B2)
                 (A1) (A1) (B1) (A2) (B2) (A1) (B1) (B2) (A2) (B1)
                 (A1) (B2) (B1) (A2) (A1) (A1) (B2) (A2) (A1) (B1)
                 (B2) (A2) (B2) (A1) (B2) (B1) (A2) (A2) (B1) (B2)
                 (B1) (B2) (A1) (B1) (B2) (A1) (A2) (A1) (A2) (A1)
                 (B2) (A2) (B1) (A1) (A1) (A1) (B2) (B2) (B1) (A2)
                 (A1) (B2) (B2) (B2) (A1) (A2) (B2) (B1) (A1) (B1)
                 (B2) (A2) (A1) (A2) (B1) (B2) (A1) (B2) (A2) (A2)
                 (B1) (B2) (A1) (A1) (B1) (B2) (A2) (A1) (B2) (A2)
                 (B1) (B2) (A2) (B1) (A1) (B1) (B2) (B2) (A1) (A2)
                 (B2) (A1) (B1) (A1) (A2) (B2) (A2) (A1) (A2) (B2)
                 (B1) (B2) (A1) (A2) (A2) (A1) (A2) (B2) (A1) (B2)
                 (A1) (B2) (B2) (B2) (B1) (A1) (A1) (A2) (B2) (A1)
                 (A1) (A2) (B2) (B1) (A1) (B2) (A2) (A1) (A1) (B2)
                 (B2) (B2) (A1) (B2) (A1) (B2) (A1) (B1) (A1) (A1)
                 (B2) (A2) (B2) (A2) (B2) (B1) (B2) (B1) (A1) (B1)
                 (B2) (A1) (B2) (A2) (A2) (A1) (B1) (A2) (B1) (B2)
                 (A1) (B2) (A1) (B1) (B2) (A2) (B1) (B1) (A1) (B2)
                 (A1) (A1) (A2) (A1) (B2) (A2) (A2) (B1) (A1) (B2)
                 (A1) (B2) (A2) (B1) (B2) (A1) (B1) (B2) (A1) (B2)
                 (A2) (A1) (B2) (A1) (A2) (A1) (B2) (A2) (B2) (A1)
                 (B2) (A2) (B1) (A1) (B1) (B2) (A1) (A2) (A2) (B2)
                 (A1) (B2) (A1) (B2) (A1) (B2) (B2) (A1) (B2) (A2)
                 (A2) (A1) (A1) (B2) (B2) (B2) (A1) (B2) (A2) (A1)
                 (A2) (B2) (A1) (B2) (A1) (A1) (A1) (B2) (B2) (A1)
                 (B2) (A1) (B2) (B2) (A1) (A1) (B2) (A1) (B2) (B2)
                 (A1) (B2) (A1) (B2) (A1) (B2) (A1) (A1) (B2) (B2)
                 (B2) (B2) (A1) (B2) (B2) (B2) (B2) (A1) (B2) (B2)
                 (B2) (B2) (B2) (B2) (A1) (A1) (B2) (A1) (A1) (B2)
                 (A1) (A1) (B2) (A1) (A1) (B2) (B2) (A1) (A1) (B2)
                 (A1) (B2) (A1) (B2) (A1) (B2) (B2) (B2) (A1) (B2)
                 (B2) (B2)
    80 initial guesses have been made.
 Convergence on wavefunction:    0.001000000000000
 Davidson Disk Diagonalization:  ConvIn= 1.00D-03 SkipCon=T Conv= 1.00D-03.
 Max sub-space:  2000 roots to seek:    80 dimension of matrix:       111616
 Iteration     1 Dimension    80 NMult     0 NNew     80
 CISAX will form    80 AO SS matrices at one time.
 NMat=    80 NSing=    80 JSym2X=-1.
 FoFJK:  IHMeth= 1 ICntrl=       0 DoSepK=T KAlg= 0 I1Cent=           0 FoldK=F
 IRaf=         1 NMat=     160 IRICut=       1 DoRegI=T DoRafI=F ISym2E=-1 IDoP0=3 IntGTp=3.
 FoFCou: FMM=F IPFlag=           0 FMFlag=      100000 FMFlg1=           0
         NFxFlg=           0 DoJE=F BraDBF=F KetDBF=F FulRan=T
         wScrn=  0.000000 ICntrl=       500 IOpCl=  0 I1Cent=           0 NGrid=           0
         NMat0=   80 NMatS0=     80 NMatT0=    0 NMatD0=   80 NMtDS0=    0 NMtDT0=    0
 Petite list used in FoFCou.
 New state      2 was old state      7
 New state      4 was old state      9
 New state      5 was old state      6
 New state      6 was old state      4
 New state      7 was old state      2
 New state      8 was old state     17
 New state      9 was old state     22
 New state     10 was old state     34
 New state     11 was old state     30
 New state     12 was old state     18
 New state     13 was old state      5
 New state     14 was old state     26
 New state     15 was old state     10
 New state     16 was old state      8
 New state     17 was old state     11
 New state     18 was old state     39
 New state     19 was old state     32
 New state     20 was old state     14
 Excitation Energies [eV] at current iteration:
 Root      1 :     1.893484435204949
 Root      2 :     2.971803393987931
 Root      3 :     3.021008538452049
[...]
     5  C    0.000000  -0.000000   0.000000  -0.000000   0.000000  -0.000000
     6  C   -0.000000   0.000000  -0.000000   0.000000   0.000000   0.000000
     7  C   -0.000000   0.000000  -0.000000   0.000000   0.000000   0.000000
     8  C   -0.000000   0.000000  -0.000000  -0.000000  -0.000000  -0.000000
     9  C    0.000000  -0.000000   0.000000  -0.000000   0.000000  -0.000000
    10  C    0.000000  -0.000000   0.000000  -0.000000   0.000000   0.000000
    11  C   -0.000000   0.000000  -0.000000   0.000000  -0.000000   0.000000
    12  H    0.000000   0.000000  -0.000000  -0.000000  -0.000000   0.000000
    13  C   -0.000000  -0.000000  -0.000000   0.000000  -0.000000  -0.000000
    14  C    0.000000  -0.000000   0.000000  -0.000000   0.000000   0.000000
    15  C   -0.000000   0.000000  -0.000000   0.000000  -0.000000   0.000000
    16  C   -0.000000   0.000000  -0.000000   0.000000  -0.000000   0.000000
    17  C    0.000000  -0.000000   0.000000  -0.000000   0.000000  -0.000000
    18  H    0.000000  -0.000000  -0.000000   0.000000   0.000000   0.000000
    19  H    0.000000  -0.000000  -0.000000   0.000000   0.000000   0.000000
    20  H    0.000000  -0.000000  -0.000000  -0.000000  -0.000000   0.000000
    21  H   -0.000000  -0.000000   0.000000   0.000000   0.000000  -0.000000
    22  H   -0.000000   0.000000  -0.000000   0.000000  -0.000000   0.000000
    23  H   -0.000000  -0.000000  -0.000000   0.000000   0.000000  -0.000000
    24  H    0.000000  -0.000000   0.000000  -0.000000   0.000000  -0.000000
    25  C    0.000000   0.000000  -0.000000   0.000000  -0.000000   0.000000
    26  C   -0.000000   0.000000  -0.000000   0.000000  -0.000000  -0.000000
    27  C    0.000000  -0.000000   0.000000  -0.000000  -0.000000  -0.000000
    28  C    0.000000  -0.000000   0.000000   0.000000   0.000000  -0.000000
    29  H    0.000000  -0.000000   0.000000  -0.000000   0.000000  -0.000000
    30  H   -0.000000   0.000000  -0.000000   0.000000  -0.000000   0.000000
    31  C    0.000000  -0.000000   0.000000  -0.000000   0.000000  -0.000000
    32  C   -0.000000   0.000000  -0.000000   0.000000  -0.000000   0.000000
    33  C    0.000000  -0.000000   0.000000  -0.000000   0.000000  -0.000000
    34  C   -0.000000   0.000000  -0.000000   0.000000  -0.000000   0.000000
    35  H    0.000000  -0.000000   0.000000  -0.000000   0.000000  -0.000000
    36  H   -0.000000   0.000000  -0.000000   0.000000  -0.000000   0.000000
    37  C   -0.000000   0.000000  -0.000000   0.000000  -0.000000   0.000000
    38  C    0.000000  -0.000000   0.000000  -0.000000   0.000000  -0.000000
    39  C   -0.000000   0.000000  -0.000000   0.000000  -0.000000   0.000000
    40  C    0.000000  -0.000000   0.000000  -0.000000   0.000000  -0.000000
    41  H   -0.000000   0.000000  -0.000000   0.000000  -0.000000   0.000000
    42  H   -0.000000  -0.000000   0.000000   0.000000   0.000000  -0.000000
    43  H    0.000000   0.000000  -0.000000  -0.000000  -0.000000   0.000000
    44  H    0.000000  -0.000000   0.000000  -0.000000   0.000000  -0.000000
              37         38         39         40         41         42
     1  C   -0.000000   0.000000  -0.000000   0.000000  -0.000000  -0.000000
     2  C   -0.000000   0.000000  -0.000000   0.000000   0.000000  -0.000000
     3  C    0.000000  -0.000000   0.000000  -0.000000   0.000000   0.000000
     4  C   -0.000000  -0.000000  -0.000000   0.000000  -0.000000  -0.000000
     5  C   -0.000000   0.000000  -0.000000   0.000000  -0.000000  -0.000000
     6  C    0.000000  -0.000000   0.000000  -0.000000   0.000000   0.000000
     7  C   -0.000000   0.000000  -0.000000   0.000000  -0.000000   0.000000
     8  C    0.000000  -0.000000  -0.000000  -0.000000   0.000000   0.000000
     9  C   -0.000000   0.000000  -0.000000   0.000000  -0.000000  -0.000000
    10  C    0.000000  -0.000000   0.000000  -0.000000   0.000000  -0.000000
    11  C    0.000000  -0.000000   0.000000  -0.000000   0.000000   0.000000
    12  H    0.000000   0.000000  -0.000000  -0.000000   0.000000  -0.000000
    13  C    0.000000  -0.000000   0.000000  -0.000000  -0.000000   0.000000
    14  C   -0.000000   0.000000  -0.000000   0.000000   0.000000  -0.000000
    15  C    0.000000  -0.000000   0.000000  -0.000000   0.000000   0.000000
    16  C   -0.000000  -0.000000   0.000000  -0.000000  -0.000000   0.000000
    17  C   -0.000000   0.000000  -0.000000  -0.000000   0.000000  -0.000000
    18  H    0.000000  -0.000000   0.000000  -0.000000   0.000000   0.000000
    19  H   -0.000000   0.000000  -0.000000   0.000000  -0.000000  -0.000000
    20  H    0.000000   0.000000  -0.000000  -0.000000  -0.000000  -0.000000
    21  H   -0.000000  -0.000000   0.000000   0.000000  -0.000000   0.000000
    22  H    0.000000  -0.000000   0.000000  -0.000000   0.000000   0.000000
    23  H   -0.000000  -0.000000   0.000000   0.000000  -0.000000   0.000000
    24  H   -0.000000   0.000000  -0.000000   0.000000   0.000000  -0.000000
    25  C    0.000000  -0.000000   0.000000  -0.000000   0.000000  -0.000000
    26  C    0.000000  -0.000000   0.000000  -0.000000   0.000000  -0.000000
    27  C   -0.000000   0.000000  -0.000000   0.000000  -0.000000   0.000000
    28  C   -0.000000   0.000000  -0.000000   0.000000  -0.000000   0.000000
    29  H    0.000000  -0.000000   0.000000  -0.000000   0.000000  -0.000000
    30  H   -0.000000   0.000000  -0.000000   0.000000  -0.000000   0.000000
    31  C   -0.000000   0.000000  -0.000000   0.000000  -0.000000  -0.000000
    32  C    0.000000  -0.000000   0.000000  -0.000000   0.000000  -0.000000
    33  C   -0.000000   0.000000  -0.000000   0.000000  -0.000000   0.000000
    34  C    0.000000  -0.000000   0.000000  -0.000000   0.000000   0.000000
    35  H   -0.000000   0.000000  -0.000000   0.000000  -0.000000   0.000000
    36  H    0.000000  -0.000000   0.000000  -0.000000   0.000000  -0.000000
    37  C    0.000000   0.000000  -0.000000  -0.000000  -0.000000   0.000000
    38  C    0.000000  -0.000000   0.000000  -0.000000   0.000000  -0.000000
    39  C   -0.000000   0.000000  -0.000000   0.000000  -0.000000   0.000000
    40  C   -0.000000  -0.000000   0.000000   0.000000   0.000000  -0.000000
    41  H   -0.000000   0.000000  -0.000000   0.000000  -0.000000   0.000000
    42  H    0.000000  -0.000000   0.000000  -0.000000   0.000000  -0.000000
    43  H   -0.000000   0.000000  -0.000000   0.000000  -0.000000   0.000000
    44  H    0.000000  -0.000000   0.000000  -0.000000   0.000000  -0.000000
              43         44
     1  C    0.000000  -0.000000
     2  C    0.000000   0.000000
     3  C   -0.000000  -0.000000
     4  C    0.000000   0.000000
     5  C    0.000000   0.000000
     6  C   -0.000000   0.000000
     7  C   -0.000000   0.000000
     8  C   -0.000000  -0.000000
     9  C    0.000000   0.000000
    10  C    0.000000  -0.000000
    11  C   -0.000000   0.000000
    12  H    0.000000  -0.000000
    13  C   -0.000000  -0.000000
    14  C    0.000000   0.000000
    15  C   -0.000000  -0.000000
    16  C   -0.000000   0.000000
    17  C    0.000000  -0.000000
    18  H   -0.000000  -0.000000
    19  H    0.000000   0.000000
    20  H    0.000000  -0.000000
    21  H   -0.000000   0.000000
    22  H   -0.000000   0.000000
    23  H   -0.000000  -0.000000
    24  H    0.000000   0.000000
    25  C    0.000000  -0.000000
    26  C    0.000000  -0.000000
    27  C   -0.000000   0.000000
    28  C   -0.000000   0.000000
    29  H    0.000000  -0.000000
    30  H   -0.000000   0.000000
    31  C    0.000000   0.000000
    32  C    0.000000  -0.000000
    33  C   -0.000000   0.000000
    34  C   -0.000000  -0.000000
    35  H   -0.000000   0.000000
    36  H    0.000000  -0.000000
    37  C   -0.000000   0.000000
    38  C    0.000000  -0.000000
    39  C   -0.000000   0.000000
    40  C    0.000000  -0.000000
    41  H   -0.000000   0.000000
    42  H    0.000000  -0.000000
    43  H   -0.000000   0.000000
    44  H    0.000000  -0.000000
 Mulliken charges and spin densities:
               1          2
     1  C   -0.103016   0.000000
     2  C   -0.171942  -0.000000
     3  C    0.062435   0.000000
     4  C   -0.012149  -0.000000
     5  C    0.191615   0.000000
     6  C   -0.189707  -0.000000
     7  C    0.214334   0.000000
     8  C   -0.012149  -0.000000
     9  C    0.062435   0.000000
    10  C    0.214334   0.000000
    11  C   -0.171942  -0.000000
    12  H    0.078715   0.000000
    13  C   -0.103016   0.000000
    14  C   -0.189707  -0.000000
    15  C    0.191615   0.000000
    16  C   -0.207211   0.000000
    17  C   -0.207211   0.000000
    18  H    0.096208   0.000000
    19  H    0.096208   0.000000
    20  H    0.104046   0.000000
    21  H    0.078715   0.000000
    22  H    0.100445   0.000000
    23  H    0.104046   0.000000
    24  H    0.100445   0.000000
    25  C   -0.361692  -0.000000
    26  C    0.272779  -0.000000
    27  C    0.272779  -0.000000
    28  C   -0.361692  -0.000000
    29  H    0.078217  -0.000000
    30  H    0.078217  -0.000000
    31  C   -0.360478   0.000000
    32  C    0.235129  -0.000000
    33  C    0.235129  -0.000000
    34  C   -0.360478   0.000000
    35  H    0.089176   0.000000
    36  H    0.089176   0.000000
    37  C   -0.236364   0.000000
    38  C   -0.087127  -0.000000
    39  C   -0.087127  -0.000000
    40  C   -0.236364   0.000000
    41  H    0.099220  -0.000000
    42  H    0.107368  -0.000000
    43  H    0.107368  -0.000000
    44  H    0.099220  -0.000000
 Sum of Mulliken charges =  -0.00000  -0.00000
 Mulliken charges and spin densities with hydrogens summed into heavy atoms:
               1          2
     1  C    0.001029   0.000000
     2  C   -0.093227   0.000000
     3  C    0.062435   0.000000
     4  C   -0.012149  -0.000000
     5  C    0.191615   0.000000
     6  C   -0.089261  -0.000000
     7  C    0.214334   0.000000
     8  C   -0.012149  -0.000000
     9  C    0.062435   0.000000
    10  C    0.214334   0.000000
    11  C   -0.093227   0.000000
    13  C    0.001029   0.000000
    14  C   -0.089261  -0.000000
    15  C    0.191615   0.000000
    16  C   -0.111003   0.000000
    17  C   -0.111003   0.000000
    25  C   -0.283476  -0.000000
    26  C    0.272779  -0.000000
    27  C    0.272779  -0.000000
    28  C   -0.283476  -0.000000
    31  C   -0.271301   0.000000
    32  C    0.235129  -0.000000
    33  C    0.235129  -0.000000
    34  C   -0.271301   0.000000
    37  C   -0.137144   0.000000
    38  C    0.020241  -0.000000
    39  C    0.020241  -0.000000
    40  C   -0.137144   0.000000
 Electronic spatial extent (au):  <R**2>=          12601.5081
 Charge=             -0.0000 electrons
 Dipole moment (field-independent basis, Debye):
    X=              0.0000    Y=              0.0000    Z=              0.0485  Tot=              0.0485
 Quadrupole moment (field-independent basis, Debye-Ang):
   XX=           -170.1732   YY=           -138.6816   ZZ=           -137.8794
   XY=              0.0000   XZ=              0.0000   YZ=              0.0000
 Traceless Quadrupole moment (field-independent basis, Debye-Ang):
   XX=            -21.2618   YY=             10.2298   ZZ=             11.0320
   XY=              0.0000   XZ=              0.0000   YZ=              0.0000
 Octapole moment (field-independent basis, Debye-Ang**2):
  XXX=              0.0000  YYY=             -0.0000  ZZZ=              5.0902  XYY=              0.0000
  XXY=             -0.0000  XXZ=             -1.5487  XZZ=              0.0000  YZZ=              0.0000
  YYZ=             -2.1863  XYZ=             -0.0000
 Hexadecapole moment (field-independent basis, Debye-Ang**3):
 XXXX=           -195.3461 YYYY=          -2983.8057 ZZZZ=         -12793.4261 XXXY=             -0.0000
 XXXZ=             -0.0000 YYYX=             -0.0000 YYYZ=              0.0000 ZZZX=              0.0000
 ZZZY=             -0.0000 XXYY=           -648.7296 XXZZ=          -2675.7305 YYZZ=          -2648.2409
 XXYZ=              0.0000 YYXZ=             -0.0000 ZZXY=             -0.0000
 N-N= 2.219235198184D+03 E-N=-6.935833175612D+03  KE= 1.070445685233D+03
 Symmetry A1   KE= 5.274811067069D+02
 Symmetry A2   KE= 1.364195881148D+01
 Symmetry B1   KE= 1.683120613268D+01
 Symmetry B2   KE= 5.124914135819D+02
 Symmetry A1   SP=-1.832415327669D-14
 Symmetry A2   SP=-7.438542802135D-15
 Symmetry B1   SP= 3.838450070218D-15
 Symmetry B2   SP= 7.410798024966D-15
 Leave Link  601 at Tue Jan 21 00:40:26 2020, MaxMem=  6710886400 cpu:             111.3 elap:               7.1
 (Enter /opt/ohpc/pub/libs/gaussian/g16-A.03/sandybridge/g16/l9999.exe)
 Electronic transition elements 
                 1             2             3             4             5 
      1  -0.107595D+04 -0.107591D+04 -0.107590D+04 -0.107590D+04 -0.107590D+04
      2   0.000000D+00  0.000000D+00  0.000000D+00  0.000000D+00  0.000000D+00
      3   0.000000D+00  0.000000D+00  0.000000D+00 -0.612656D+00  0.000000D+00
      4   0.000000D+00  0.000000D+00  0.000000D+00  0.000000D+00  0.000000D+00
      5   0.000000D+00  0.000000D+00  0.000000D+00  0.000000D+00  0.000000D+00
      6   0.000000D+00  0.000000D+00  0.000000D+00  0.686619D-01  0.000000D+00
      7   0.000000D+00  0.000000D+00  0.000000D+00  0.000000D+00  0.000000D+00
      8   0.000000D+00  0.000000D+00  0.000000D+00 -0.386367D+00  0.000000D+00
      9   0.000000D+00  0.000000D+00  0.000000D+00  0.000000D+00  0.000000D+00
     10   0.000000D+00  0.000000D+00  0.000000D+00  0.000000D+00  0.000000D+00
     11   0.000000D+00  0.000000D+00  0.000000D+00  0.000000D+00  0.000000D+00
     12   0.000000D+00  0.000000D+00  0.000000D+00  0.000000D+00  0.000000D+00
     13   0.000000D+00  0.000000D+00  0.000000D+00  0.000000D+00  0.000000D+00
     14   0.000000D+00  0.000000D+00  0.000000D+00  0.000000D+00  0.000000D+00
     15   0.000000D+00  0.000000D+00  0.000000D+00  0.000000D+00  0.000000D+00
     16   0.000000D+00  0.000000D+00  0.000000D+00  0.631637D+00  0.000000D+00
                 6             7             8             9            10 
      1  -0.107589D+04 -0.107589D+04 -0.107587D+04 -0.107587D+04 -0.107587D+04
      2   0.000000D+00  0.000000D+00  0.000000D+00  0.000000D+00  0.000000D+00
      3   0.000000D+00  0.000000D+00  0.000000D+00  0.000000D+00  0.000000D+00
      4   0.000000D+00 -0.480001D+00  0.000000D+00  0.000000D+00  0.000000D+00
      5   0.000000D+00  0.000000D+00  0.000000D+00  0.000000D+00  0.000000D+00
      6   0.000000D+00  0.000000D+00  0.000000D+00  0.000000D+00  0.000000D+00
      7   0.000000D+00  0.578976D-01  0.000000D+00  0.000000D+00  0.000000D+00
      8   0.000000D+00  0.000000D+00  0.000000D+00  0.000000D+00  0.000000D+00
      9   0.000000D+00  0.000000D+00  0.000000D+00  0.000000D+00  0.000000D+00
     10   0.000000D+00  0.000000D+00  0.000000D+00  0.000000D+00  0.000000D+00
     11   0.000000D+00 -0.600771D-02  0.000000D+00  0.000000D+00  0.000000D+00
     12   0.000000D+00 -0.162040D+00  0.000000D+00  0.000000D+00  0.000000D+00
     13   0.000000D+00  0.271410D+00  0.000000D+00  0.000000D+00  0.000000D+00
     14   0.000000D+00  0.000000D+00  0.000000D+00  0.000000D+00  0.000000D+00
     15   0.000000D+00  0.000000D+00  0.000000D+00  0.000000D+00  0.000000D+00
     16   0.000000D+00  0.000000D+00  0.000000D+00  0.000000D+00  0.000000D+00
                11            12            13            14            15 
      1  -0.107587D+04 -0.107587D+04 -0.107586D+04 -0.107586D+04 -0.107586D+04
      2   0.000000D+00  0.000000D+00  0.000000D+00  0.000000D+00  0.000000D+00
      3   0.000000D+00  0.000000D+00  0.000000D+00  0.000000D+00 -0.106967D+01
      4   0.000000D+00  0.329278D+01  0.000000D+00  0.373513D+00  0.000000D+00
      5   0.000000D+00  0.000000D+00  0.000000D+00  0.000000D+00  0.000000D+00
      6   0.000000D+00  0.000000D+00  0.000000D+00  0.000000D+00  0.157814D+00
      7   0.000000D+00 -0.462452D+00  0.000000D+00 -0.549378D-01  0.000000D+00
      8   0.000000D+00  0.000000D+00  0.000000D+00  0.000000D+00 -0.150589D-01
      9   0.000000D+00  0.000000D+00  0.000000D+00  0.000000D+00  0.000000D+00
     10   0.000000D+00  0.000000D+00  0.000000D+00  0.000000D+00  0.000000D+00
     11   0.000000D+00 -0.149951D-02  0.000000D+00  0.432159D-02  0.000000D+00
     12   0.000000D+00  0.897689D+00  0.000000D+00  0.893782D-01  0.000000D+00
     13   0.000000D+00 -0.127904D+01  0.000000D+00 -0.617190D-01  0.000000D+00
     14   0.000000D+00  0.000000D+00  0.000000D+00  0.000000D+00  0.000000D+00
     15   0.000000D+00  0.000000D+00  0.000000D+00  0.000000D+00  0.000000D+00
     16   0.000000D+00  0.000000D+00  0.000000D+00  0.000000D+00 -0.592340D+00
                16            17            18            19            20 
      1  -0.107586D+04 -0.107585D+04 -0.107585D+04 -0.107585D+04 -0.107585D+04
      2   0.000000D+00  0.000000D+00  0.000000D+00  0.000000D+00  0.000000D+00
      3   0.000000D+00  0.835713D+00  0.000000D+00  0.479583D+00  0.000000D+00
      4   0.000000D+00  0.000000D+00  0.000000D+00  0.000000D+00  0.000000D+00
      5   0.000000D+00  0.000000D+00  0.000000D+00  0.000000D+00  0.000000D+00
      6   0.000000D+00 -0.127608D+00  0.000000D+00 -0.776231D-01  0.000000D+00
      7   0.000000D+00  0.000000D+00  0.000000D+00  0.000000D+00  0.000000D+00
      8   0.000000D+00 -0.240992D+01  0.000000D+00 -0.236939D+01  0.000000D+00
      9   0.000000D+00  0.000000D+00  0.000000D+00  0.000000D+00  0.000000D+00
     10   0.000000D+00  0.000000D+00  0.000000D+00  0.000000D+00  0.000000D+00
     11   0.000000D+00  0.000000D+00  0.000000D+00  0.000000D+00  0.000000D+00
     12   0.000000D+00  0.000000D+00  0.000000D+00  0.000000D+00  0.000000D+00
     13   0.000000D+00  0.000000D+00  0.000000D+00  0.000000D+00  0.000000D+00
     14   0.000000D+00  0.000000D+00  0.000000D+00  0.000000D+00  0.000000D+00
     15   0.000000D+00  0.000000D+00  0.000000D+00  0.000000D+00  0.000000D+00
     16   0.000000D+00  0.121114D+01  0.000000D+00  0.915095D+00  0.000000D+00

 Test job not archived.
 1\1\GINC-GNODE016\SP\ULC-wHPBE TD-FC\def2TZVP\C28H16\QAI222\21-Jan-202
 0\0\\#P uLC-wHPBE/def2tzvp iop(3/107=0179000000, 3/108=0179000000) td(
 NStates=20)\\H16 C28\\0,1\C,0,0.,3.526831,-2.987308\C,0,0.,2.845514,-1
 .769364\C,0,0.,1.451247,-1.708575\C,0,0.,0.720817,-2.927062\C,0,0.,1.4
 1858,-4.167191\C,0,0.,2.823243,-4.176555\C,0,0.,0.722182,-0.426508\C,0
 ,0.,-0.720817,-2.927062\C,0,0.,-1.451247,-1.708575\C,0,0.,-0.722182,-0
 .426508\C,0,0.,-2.845514,-1.769364\H,0,0.,-3.433438,-0.853842\C,0,0.,-
 3.526831,-2.987308\C,0,0.,-2.823243,-4.176555\C,0,0.,-1.41858,-4.16719
 1\C,0,0.,-0.677354,-5.396594\C,0,0.,0.677354,-5.396594\H,0,0.,1.234623
 ,-6.334793\H,0,0.,-1.234623,-6.334793\H,0,0.,4.617107,-2.993917\H,0,0.
 ,3.433438,-0.853842\H,0,0.,3.346947,-5.133725\H,0,0.,-4.617107,-2.9939
 17\H,0,0.,-3.346947,-5.133725\C,0,0.,1.387876,0.782013\C,0,0.,0.717106
 ,2.030299\C,0,0.,-0.717106,2.030299\C,0,0.,-1.387876,0.782013\H,0,0.,2
 .476526,0.810228\H,0,0.,-2.476526,0.810228\C,0,0.,1.402238,3.253549\C,
 0,0.,0.720581,4.47168\C,0,0.,-0.720581,4.47168\C,0,0.,-1.402238,3.2535
 49\H,0,0.,2.494585,3.25313\H,0,0.,-2.494585,3.25313\C,0,0.,1.404975,5.
 728127\C,0,0.,0.712695,6.905489\C,0,0.,-0.712695,6.905489\C,0,0.,-1.40
 4975,5.728127\H,0,0.,2.496311,5.725697\H,0,0.,1.248353,7.855216\H,0,0.
 ,-1.248353,7.855216\H,0,0.,-2.496311,5.725697\\Version=EM64L-G16RevA.0
 3\State=1-A1\HF=-1076.0065891\S2=0.\S2-1=0.\S2A=0.\RMSD=8.364e-09\PG=C
 02V [SGV(C28H16)]\\@


 YOU CANNOT THROW TO THE GROUND THE LETTERS OF
 THE GREEK ALPHABET AND PICK UP THE ILIAD.
        - RUFUS CHOATE, 1799-1859
 Job cpu time:       1 days  3 hours 21 minutes 29.6 seconds.
 Elapsed time:       0 days  1 hours 42 minutes 48.2 seconds.
 File lengths (MBytes):  RWF=   7648 Int=      0 D2E=      0 Chk=    672 Scr=     32
 Normal termination of Gaussian 16 at Tue Jan 21 00:40:27 2020.
