 Entering Gaussian System, Link 0=g16
 Input=p4.gjf
 Output=p4.log
 Initial command:
 /opt/ohpc/pub/libs/gaussian/g16-A.03/sandybridge/g16/l1.exe "/scratch/qai222/pamol/pamol_fmt/s1/p4/Gau-53995.inp" -scrdir="/scratch/qai222/pamol/pamol_fmt/s1/p4/"
 Entering Link 1 = /opt/ohpc/pub/libs/gaussian/g16-A.03/sandybridge/g16/l1.exe PID=     53996.
  
 Copyright (c) 1988,1990,1992,1993,1995,1998,2003,2009,2016,
            Gaussian, Inc.  All Rights Reserved.
  
 This is part of the Gaussian(R) 16 program.  It is based on
 the Gaussian(R) 09 system (copyright 2009, Gaussian, Inc.),
 the Gaussian(R) 03 system (copyright 2003, Gaussian, Inc.),
 the Gaussian(R) 98 system (copyright 1998, Gaussian, Inc.),
 the Gaussian(R) 94 system (copyright 1995, Gaussian, Inc.),
 the Gaussian 92(TM) system (copyright 1992, Gaussian, Inc.),
 the Gaussian 90(TM) system (copyright 1990, Gaussian, Inc.),
 the Gaussian 88(TM) system (copyright 1988, Gaussian, Inc.),
 the Gaussian 86(TM) system (copyright 1986, Carnegie Mellon
 University), and the Gaussian 82(TM) system (copyright 1983,
 Carnegie Mellon University). Gaussian is a federally registered
 trademark of Gaussian, Inc.
  
 This software contains proprietary and confidential information,
 including trade secrets, belonging to Gaussian, Inc.
  
 This software is provided under written license and may be
 used, copied, transmitted, or stored only in accord with that
 written license.
  
 The following legend is applicable only to US Government
 contracts under FAR:
  
                    RESTRICTED RIGHTS LEGEND
  
 Use, reproduction and disclosure by the US Government is
 subject to restrictions as set forth in subparagraphs (a)
 and (c) of the Commercial Computer Software - Restricted
 Rights clause in FAR 52.227-19.
  
 Gaussian, Inc.
 340 Quinnipiac St., Bldg. 40, Wallingford CT 06492
  
  
 ---------------------------------------------------------------
 Warning -- This program may not be used in any manner that
 competes with the business of Gaussian, Inc. or will provide
 assistance to any competitor of Gaussian, Inc.  The licensee
 of this program is prohibited from giving any competitor of
 Gaussian, Inc. access to this program.  By using this program,
 the user acknowledges that Gaussian, Inc. is engaged in the
 business of creating and licensing software in the field of
 computational chemistry and represents and warrants to the
 licensee that it is not a competitor of Gaussian, Inc. and that
 it will not use this program in any manner prohibited above.
 ---------------------------------------------------------------
  

 Cite this work as:
 Gaussian 16, Revision A.03,
 M. J. Frisch, G. W. Trucks, H. B. Schlegel, G. E. Scuseria, 
 M. A. Robb, J. R. Cheeseman, G. Scalmani, V. Barone, 
 G. A. Petersson, H. Nakatsuji, X. Li, M. Caricato, A. V. Marenich, 
 J. Bloino, B. G. Janesko, R. Gomperts, B. Mennucci, H. P. Hratchian, 
 J. V. Ortiz, A. F. Izmaylov, J. L. Sonnenberg, D. Williams-Young, 
 F. Ding, F. Lipparini, F. Egidi, J. Goings, B. Peng, A. Petrone, 
 T. Henderson, D. Ranasinghe, V. G. Zakrzewski, J. Gao, N. Rega, 
 G. Zheng, W. Liang, M. Hada, M. Ehara, K. Toyota, R. Fukuda, 
 J. Hasegawa, M. Ishida, T. Nakajima, Y. Honda, O. Kitao, H. Nakai, 
 T. Vreven, K. Throssell, J. A. Montgomery, Jr., J. E. Peralta, 
 F. Ogliaro, M. J. Bearpark, J. J. Heyd, E. N. Brothers, K. N. Kudin, 
 V. N. Staroverov, T. A. Keith, R. Kobayashi, J. Normand, 
 K. Raghavachari, A. P. Rendell, J. C. Burant, S. S. Iyengar, 
 J. Tomasi, M. Cossi, J. M. Millam, M. Klene, C. Adamo, R. Cammi, 
 J. W. Ochterski, R. L. Martin, K. Morokuma, O. Farkas, 
 J. B. Foresman, and D. J. Fox, Gaussian, Inc., Wallingford CT, 2016.
 
 ******************************************
 Gaussian 16:  EM64L-G16RevA.03 25-Dec-2016
                20-Jan-2020 
 ******************************************
 %mem=50GB
 %nproc=16
 Will use up to   16 processors via shared memory.
 ----------------------------------------------------------------------
 #P uLC-wHPBE/def2tzvp iop(3/107=0169000000, 3/108=0169000000) td(NStat
 es=20)
 ----------------------------------------------------------------------
 1/38=1,172=1/1;
 2/12=2,17=6,18=5,40=1/2;
 3/5=44,7=101,11=2,25=1,30=1,74=-71,107=169000000,108=169000000,116=2/1,2,3,8;
 4//1;
 5/5=2,38=5/2;
 8/6=1,10=1,108=20/1;
 9/41=20,42=1,70=2/14;
 6/7=2,8=2,9=2,10=2/1;
 99/5=1,9=1/99;
 Leave Link    1 at Mon Jan 20 22:57:39 2020, MaxMem=  6710886400 cpu:               9.8 elap:               0.7
 (Enter /opt/ohpc/pub/libs/gaussian/g16-A.03/sandybridge/g16/l101.exe)
 -------
 H18 C32
 -------
 Symbolic Z-matrix:
 Charge =  0 Multiplicity = 1
 C                     0.        3.52833  -4.09333 
 C                     0.        2.84706  -2.87479 
 C                     0.        1.45243  -2.81304 
 C                     0.        0.72102  -4.03161 
 C                     0.        1.4188   -5.27257 
 C                     0.        2.82419  -5.28247 
 C                     0.        0.72476  -1.52997 
 C                     0.       -0.72102  -4.03161 
 C                     0.       -1.45243  -2.81304 
 C                     0.       -0.72476  -1.52997 
 C                     0.       -2.84706  -2.87479 
 H                     0.       -3.43543  -1.95933 
 C                     0.       -3.52833  -4.09333 
 C                     0.       -2.82419  -5.28247 
 C                     0.       -1.4188   -5.27257 
 C                     0.       -0.67777  -6.50167 
 C                     0.        0.67777  -6.50167 
 H                     0.        1.23509  -7.44003 
 H                     0.       -1.23509  -7.44003 
 H                     0.        4.61876  -4.10017 
 H                     0.        3.43543  -1.95933 
 H                     0.        3.34742  -6.24008 
 H                     0.       -4.61876  -4.10017 
 H                     0.       -3.34742  -6.24008 
 C                     0.        1.39002  -0.32404 
 C                     0.        0.72038   0.92965 
 C                     0.       -0.72038   0.92965 
 C                     0.       -1.39002  -0.32404 
 H                     0.        2.47886  -0.29609 
 H                     0.       -2.47886  -0.29609 
 C                     0.        1.40525   2.14399 
 C                     0.        0.72396   3.37479 
 C                     0.       -0.72396   3.37479 
 C                     0.       -1.40525   2.14399 
 H                     0.        2.49764   2.14295 
 H                     0.       -2.49764   2.14295 
 C                     0.        1.40412   4.61072 
 C                     0.        0.72337   5.82228 
 C                     0.       -0.72337   5.82228 
 C                     0.       -1.40412   4.61072 
 H                     0.        2.49654   4.61153 
 H                     0.       -2.49654   4.61153 
 C                     0.        1.40719   7.08274 
 C                     0.        0.7145    8.25799 
 C                     0.       -0.7145    8.25799 
 C                     0.       -1.40719   7.08274 
 H                     0.        2.49867   7.08064 
 H                     0.        1.24906   9.20851 
 H                     0.       -1.24906   9.20851 
 H                     0.       -2.49867   7.08064 
 
 ITRead=  0  0  0  0  0  0  0  0  0  0  0  0  0  0  0  0  0  0  0  0
 ITRead=  0  0  0  0  0  0  0  0  0  0  0  0  0  0  0  0  0  0  0  0
 ITRead=  0  0  0  0  0  0  0  0  0  0
 MicOpt= -1 -1 -1 -1 -1 -1 -1 -1 -1 -1 -1 -1 -1 -1 -1 -1 -1 -1 -1 -1
 MicOpt= -1 -1 -1 -1 -1 -1 -1 -1 -1 -1 -1 -1 -1 -1 -1 -1 -1 -1 -1 -1
 MicOpt= -1 -1 -1 -1 -1 -1 -1 -1 -1 -1
 NAtoms=     50 NQM=       50 NQMF=       0 NMMI=      0 NMMIF=      0
                NMic=       0 NMicF=      0.
                    Isotopes and Nuclear Properties:
 (Nuclear quadrupole moments (NQMom) in fm**2, nuclear magnetic moments (NMagM)
  in nuclear magnetons)

  Atom         1           2           3           4           5           6           7           8           9          10
 IAtWgt=          12          12          12          12          12          12          12          12          12          12
 AtmWgt=  12.0000000  12.0000000  12.0000000  12.0000000  12.0000000  12.0000000  12.0000000  12.0000000  12.0000000  12.0000000
 NucSpn=           0           0           0           0           0           0           0           0           0           0
 AtZEff=  -0.0000000  -0.0000000  -0.0000000  -0.0000000  -0.0000000  -0.0000000  -0.0000000  -0.0000000  -0.0000000  -0.0000000
 NQMom=    0.0000000   0.0000000   0.0000000   0.0000000   0.0000000   0.0000000   0.0000000   0.0000000   0.0000000   0.0000000
 NMagM=    0.0000000   0.0000000   0.0000000   0.0000000   0.0000000   0.0000000   0.0000000   0.0000000   0.0000000   0.0000000
 AtZNuc=   6.0000000   6.0000000   6.0000000   6.0000000   6.0000000   6.0000000   6.0000000   6.0000000   6.0000000   6.0000000

  Atom        11          12          13          14          15          16          17          18          19          20
 IAtWgt=          12           1          12          12          12          12          12           1           1           1
 AtmWgt=  12.0000000   1.0078250  12.0000000  12.0000000  12.0000000  12.0000000  12.0000000   1.0078250   1.0078250   1.0078250
 NucSpn=           0           1           0           0           0           0           0           1           1           1
 AtZEff=  -0.0000000  -0.0000000  -0.0000000  -0.0000000  -0.0000000  -0.0000000  -0.0000000  -0.0000000  -0.0000000  -0.0000000
 NQMom=    0.0000000   0.0000000   0.0000000   0.0000000   0.0000000   0.0000000   0.0000000   0.0000000   0.0000000   0.0000000
 NMagM=    0.0000000   2.7928460   0.0000000   0.0000000   0.0000000   0.0000000   0.0000000   2.7928460   2.7928460   2.7928460
 AtZNuc=   6.0000000   1.0000000   6.0000000   6.0000000   6.0000000   6.0000000   6.0000000   1.0000000   1.0000000   1.0000000

  Atom        21          22          23          24          25          26          27          28          29          30
 IAtWgt=           1           1           1           1          12          12          12          12           1           1
 AtmWgt=   1.0078250   1.0078250   1.0078250   1.0078250  12.0000000  12.0000000  12.0000000  12.0000000   1.0078250   1.0078250
 NucSpn=           1           1           1           1           0           0           0           0           1           1
 AtZEff=  -0.0000000  -0.0000000  -0.0000000  -0.0000000  -0.0000000  -0.0000000  -0.0000000  -0.0000000  -0.0000000  -0.0000000
 NQMom=    0.0000000   0.0000000   0.0000000   0.0000000   0.0000000   0.0000000   0.0000000   0.0000000   0.0000000   0.0000000
 NMagM=    2.7928460   2.7928460   2.7928460   2.7928460   0.0000000   0.0000000   0.0000000   0.0000000   2.7928460   2.7928460
 AtZNuc=   1.0000000   1.0000000   1.0000000   1.0000000   6.0000000   6.0000000   6.0000000   6.0000000   1.0000000   1.0000000

  Atom        31          32          33          34          35          36          37          38          39          40
 IAtWgt=          12          12          12          12           1           1          12          12          12          12
 AtmWgt=  12.0000000  12.0000000  12.0000000  12.0000000   1.0078250   1.0078250  12.0000000  12.0000000  12.0000000  12.0000000
 NucSpn=           0           0           0           0           1           1           0           0           0           0
 AtZEff=  -0.0000000  -0.0000000  -0.0000000  -0.0000000  -0.0000000  -0.0000000  -0.0000000  -0.0000000  -0.0000000  -0.0000000
 NQMom=    0.0000000   0.0000000   0.0000000   0.0000000   0.0000000   0.0000000   0.0000000   0.0000000   0.0000000   0.0000000
 NMagM=    0.0000000   0.0000000   0.0000000   0.0000000   2.7928460   2.7928460   0.0000000   0.0000000   0.0000000   0.0000000
 AtZNuc=   6.0000000   6.0000000   6.0000000   6.0000000   1.0000000   1.0000000   6.0000000   6.0000000   6.0000000   6.0000000

  Atom        41          42          43          44          45          46          47          48          49          50
 IAtWgt=           1           1          12          12          12          12           1           1           1           1
 AtmWgt=   1.0078250   1.0078250  12.0000000  12.0000000  12.0000000  12.0000000   1.0078250   1.0078250   1.0078250   1.0078250
 NucSpn=           1           1           0           0           0           0           1           1           1           1
 AtZEff=  -0.0000000  -0.0000000  -0.0000000  -0.0000000  -0.0000000  -0.0000000  -0.0000000  -0.0000000  -0.0000000  -0.0000000
 NQMom=    0.0000000   0.0000000   0.0000000   0.0000000   0.0000000   0.0000000   0.0000000   0.0000000   0.0000000   0.0000000
 NMagM=    2.7928460   2.7928460   0.0000000   0.0000000   0.0000000   0.0000000   2.7928460   2.7928460   2.7928460   2.7928460
 AtZNuc=   1.0000000   1.0000000   6.0000000   6.0000000   6.0000000   6.0000000   1.0000000   1.0000000   1.0000000   1.0000000
 Leave Link  101 at Mon Jan 20 22:57:39 2020, MaxMem=  6710886400 cpu:               2.4 elap:               0.2
 (Enter /opt/ohpc/pub/libs/gaussian/g16-A.03/sandybridge/g16/l202.exe)
                          Input orientation:                          
 ---------------------------------------------------------------------
 Center     Atomic      Atomic             Coordinates (Angstroms)
 Number     Number       Type             X           Y           Z
 ---------------------------------------------------------------------
      1          6           0        0.000000    3.528330   -4.093330
      2          6           0        0.000000    2.847060   -2.874793
      3          6           0        0.000000    1.452430   -2.813041
      4          6           0        0.000000    0.721016   -4.031613
      5          6           0        0.000000    1.418801   -5.272570
      6          6           0        0.000000    2.824190   -5.282468
      7          6           0        0.000000    0.724762   -1.529966
      8          6           0        0.000000   -0.721016   -4.031613
      9          6           0        0.000000   -1.452430   -2.813041
     10          6           0        0.000000   -0.724762   -1.529966
     11          6           0        0.000000   -2.847060   -2.874793
     12          1           0        0.000000   -3.435430   -1.959325
     13          6           0        0.000000   -3.528330   -4.093330
     14          6           0        0.000000   -2.824190   -5.282468
     15          6           0        0.000000   -1.418801   -5.272570
     16          6           0        0.000000   -0.677765   -6.501668
     17          6           0        0.000000    0.677765   -6.501668
     18          1           0        0.000000    1.235090   -7.440028
     19          1           0        0.000000   -1.235090   -7.440028
     20          1           0        0.000000    4.618757   -4.100168
     21          1           0        0.000000    3.435430   -1.959325
     22          1           0        0.000000    3.347416   -6.240078
     23          1           0        0.000000   -4.618757   -4.100168
     24          1           0        0.000000   -3.347416   -6.240078
     25          6           0        0.000000    1.390017   -0.324039
     26          6           0        0.000000    0.720377    0.929653
     27          6           0        0.000000   -0.720377    0.929653
     28          6           0        0.000000   -1.390017   -0.324039
     29          1           0        0.000000    2.478856   -0.296090
     30          1           0        0.000000   -2.478856   -0.296090
     31          6           0        0.000000    1.405250    2.143991
     32          6           0        0.000000    0.723963    3.374791
     33          6           0        0.000000   -0.723963    3.374791
     34          6           0        0.000000   -1.405250    2.143991
     35          1           0        0.000000    2.497635    2.142951
     36          1           0        0.000000   -2.497635    2.142951
     37          6           0        0.000000    1.404124    4.610721
     38          6           0        0.000000    0.723366    5.822284
     39          6           0        0.000000   -0.723366    5.822284
     40          6           0        0.000000   -1.404124    4.610721
     41          1           0        0.000000    2.496541    4.611534
     42          1           0        0.000000   -2.496541    4.611534
     43          6           0        0.000000    1.407191    7.082736
     44          6           0        0.000000    0.714497    8.257987
     45          6           0        0.000000   -0.714497    8.257987
     46          6           0        0.000000   -1.407191    7.082736
     47          1           0        0.000000    2.498673    7.080641
     48          1           0        0.000000    1.249060    9.208513
     49          1           0        0.000000   -1.249060    9.208513
     50          1           0        0.000000   -2.498673    7.080641
 ---------------------------------------------------------------------
                    Distance matrix (angstroms):
                    1          2          3          4          5
     1  C    0.000000
     2  C    1.396052   0.000000
     3  C    2.438955   1.395996   0.000000
     4  C    2.807992   2.420392   1.421226   0.000000
     5  C    2.416758   2.790924   2.459759   1.423685   0.000000
     6  C    1.381978   2.407784   2.824853   2.447035   1.405424
     7  C    3.798793   2.512510   1.475053   2.501650   3.806412
     8  C    4.249794   3.750920   2.491743   1.442032   2.473619
     9  C    5.142675   4.299933   2.904860   2.491743   3.780642
    10  C    4.965846   3.816605   2.527142   2.889379   4.312997
    11  C    6.490796   5.694120   4.299933   3.750920   4.893557
    12  H    7.283401   6.348839   4.961855   4.644397   5.877172
    13  C    7.056660   6.490796   5.142675   4.249794   5.085736
    14  C    6.462860   6.161167   4.938375   3.759405   4.243003
    15  C    5.085736   4.893557   3.780642   2.473619   2.837602
    16  C    4.846785   5.057530   4.259542   2.838619   2.430282
    17  C    3.731731   4.226117   3.769095   2.470434   1.435206
    18  H    4.057011   4.841469   4.632089   3.446965   2.175230
    19  H    5.821560   6.124159   5.350867   3.929840   3.426516
    20  H    1.090448   2.154171   3.417941   3.898344   3.407968
    21  H    2.136026   1.088238   2.158963   3.415029   3.878709
    22  H    2.154358   3.402279   3.916064   3.431515   2.157690
    23  H    8.147090   7.565710   6.206127   5.340213   6.150336
    24  H    7.203083   7.049587   5.897720   4.629196   4.863424
    25  C    4.333582   2.937570   2.489784   3.767448   4.948615
    26  C    5.754560   4.358508   3.813615   4.961266   6.241423
    27  C    6.578896   5.215402   4.327684   5.166408   6.560766
    28  C    6.196587   4.945621   3.778179   4.266446   5.690116
    29  H    3.939597   2.604858   2.718197   4.128454   5.088130
    30  H    7.106709   5.917355   4.667982   4.918670   6.321162
    31  C    6.588751   5.221782   4.957257   6.213394   7.416573
    32  C    7.977299   6.600367   6.230564   7.406405   8.675232
    33  C    8.593883   7.197882   6.559417   7.546044   8.908888
    34  C    7.952634   6.578019   5.721757   6.531393   7.936034
    35  H    6.320881   5.029896   5.065008   6.425077   7.493586
    36  H    8.671993   7.330997   6.337576   6.963114   8.386204
    37  C    8.959506   7.623318   7.423919   8.669289   9.883302
    38  C   10.304719   8.952610   8.666047   9.853897  11.116628
    39  C   10.788713   9.401441   8.905219   9.959193  11.299764
    40  C   10.004479   8.608454   7.954379   8.899784  10.278538
    41  H    8.765800   7.494528   7.497632   8.823632   9.942688
    42  H   10.586488   9.197780   8.409440   9.222617  10.631341
    43  C   11.375574  10.061094   9.895880  11.135510  12.355311
    44  C   12.667781  11.335194  11.095594  12.289602  13.548875
    45  C   13.059732  11.688605  11.281101  12.373155  13.697698
    46  C   12.217357  10.828252  10.300672  11.316272  12.674376
    47  H   11.221311   9.961528   9.948848  11.253544  12.400320
    48  H   13.495707  12.188515  12.023274  13.250652  14.482078
    49  H   14.133736  12.758702  12.321356  13.385893  14.724783
    50  H   12.695763  11.299891  10.653458  11.569295  12.959492
                    6          7          8          9         10
     6  C    0.000000
     7  C    4.299869   0.000000
     8  C    3.759405   2.889379   0.000000
     9  C    4.938375   2.527142   1.421226   0.000000
    10  C    5.164914   1.449524   2.501650   1.475053   0.000000
    11  C    6.161167   3.816605   2.420392   1.395996   2.512510
    12  H    7.087039   4.182290   3.415029   2.158963   2.744462
    13  C    6.462860   4.965846   2.807992   2.438955   3.798793
    14  C    5.648380   5.164914   2.447035   2.824853   4.299869
    15  C    4.243003   4.312997   1.423685   2.459759   3.806412
    16  C    3.708118   5.165743   2.470434   3.769095   4.971924
    17  C    2.468520   4.971924   2.838619   4.259542   5.165743
    18  H    2.679609   5.932054   3.929840   5.350867   6.226544
    19  H    4.597045   6.226544   3.446965   4.632089   5.932054
    20  H    2.149024   4.665741   5.340213   6.206127   5.929514
    21  H    3.378889   2.744462   4.644397   4.961855   4.182290
    22  H    1.091230   5.391055   4.629196   5.897720   6.226378
    23  H    7.536265   5.929514   3.898344   3.417941   4.665741
    24  H    6.245457   6.226378   3.431515   3.916064   5.391055
    25  C    5.161673   1.377252   4.266446   3.778179   2.434451
    26  C    6.558695   2.459623   5.166408   4.327684   2.852745
    27  C    7.152231   2.852745   4.961266   3.813615   2.459623
    28  C    6.507347   2.434451   3.767448   2.489784   1.377252
    29  H    4.998322   2.144597   4.918670   4.667982   3.433019
    30  H    7.279166   3.433019   4.128454   2.718197   2.144597
    31  C    7.560799   3.736445   6.531393   5.721757   4.246753
    32  C    8.908372   4.904757   7.546044   6.559417   5.114239
    33  C    9.356149   5.114239   7.406405   6.230564   4.904757
    34  C    8.546371   4.246753   6.213394   4.957257   3.736445
    35  H    7.432596   4.078406   6.963114   6.337576   4.886119
    36  H    9.135572   4.886119   6.425077   5.065008   4.078406
    37  C    9.994587   6.178153   8.899784   7.954379   6.499246
    38  C   11.301725   7.352250   9.959193   8.905219   7.493508
    39  C   11.657644   7.493508   9.853897   8.666047   7.352250
    40  C   10.758895   6.499246   8.669289   7.423919   6.178153
    41  H    9.899426   6.391966   9.222617   8.409440   6.935043
    42  H   11.233942   6.935043   8.823632   7.497632   6.391966
    43  C   12.446130   8.639696  11.316272  10.300672   8.872647
    44  C   13.703822   9.787958  12.373155  11.281101   9.893204
    45  C   13.995222   9.893204  12.289602  11.095594   9.787958
    46  C   13.069157   8.872647  11.135510   9.895880   8.639696
    47  H   12.367394   8.791434  11.569295  10.653458   9.194188
    48  H   14.576336  10.751271  13.385893  12.321356  10.918375
    49  H   15.052571  10.918375  13.250652  12.023274  10.751271
    50  H   13.460287   9.194188  11.253544   9.948848   8.791434
                   11         12         13         14         15
    11  C    0.000000
    12  H    1.088238   0.000000
    13  C    1.396052   2.136026   0.000000
    14  C    2.407784   3.378889   1.381978   0.000000
    15  C    2.790924   3.878709   2.416758   1.405424   0.000000
    16  C    4.226117   5.313906   3.731731   2.468520   1.435206
    17  C    5.057530   6.127908   4.846785   3.708118   2.430282
    18  H    6.124159   7.200824   5.821560   4.597045   3.426516
    19  H    4.841469   5.905895   4.057011   2.679609   2.175230
    20  H    7.565710   8.333855   8.147090   7.536265   6.150336
    21  H    6.348839   6.870860   7.283401   7.087039   5.877172
    22  H    7.049587   8.020714   7.203083   6.245457   4.863424
    23  H    2.154171   2.446114   1.090448   2.149024   3.407968
    24  H    3.402279   4.281658   2.154358   1.091230   2.157690
    25  C    4.945621   5.095007   6.196587   6.507347   5.690116
    26  C    5.215402   5.061317   6.578896   7.152231   6.560766
    27  C    4.358508   3.964556   5.754560   6.558695   6.241423
    28  C    2.937570   2.618754   4.333582   5.161673   4.948615
    29  H    5.917355   6.143706   7.106709   7.279166   6.321162
    30  H    2.604858   1.918693   3.939597   4.998322   5.088130
    31  C    6.578019   6.345816   7.952634   8.546371   7.936034
    32  C    7.197882   6.764122   8.593883   9.356149   8.908888
    33  C    6.600367   5.983715   7.977299   8.908372   8.675232
    34  C    5.221782   4.578082   6.588751   7.560799   7.416573
    35  H    7.330997   7.213177   8.671993   9.135572   8.386204
    36  H    5.029896   4.208103   6.320881   7.432596   7.493586
    37  C    8.608454   8.160073  10.004479  10.758895  10.278538
    38  C    9.401441   8.823209  10.788713  11.657644  11.299764
    39  C    8.952610   8.240675  10.304719  11.301725  11.116628
    40  C    7.623318   6.876897   8.959506   9.994587   9.883302
    41  H    9.197780   8.852371  10.586488  11.233942  10.631341
    42  H    7.494528   6.637597   8.765800   9.899426   9.942688
    43  C   10.828252  10.257185  12.217357  13.069157  12.674376
    44  C   11.688605  11.027935  13.059732  13.995222  13.697698
    45  C   11.335194  10.573407  12.667781  13.703822  13.548875
    46  C   10.061094   9.266748  11.375574  12.446130  12.355311
    47  H   11.299891  10.813629  12.695763  13.460287  12.959492
    48  H   12.758702  12.110535  14.133736  15.052571  14.724783
    49  H   12.188515  11.379843  13.495707  14.576336  14.482078
    50  H    9.961528   9.088372  11.221311  12.367394  12.400320
                   16         17         18         19         20
    16  C    0.000000
    17  C    1.355530   0.000000
    18  H    2.130618   1.091389   0.000000
    19  H    1.091389   2.130618   2.470180   0.000000
    20  H    5.815526   4.615043   4.754352   6.739599   0.000000
    21  H    6.127908   5.313906   5.905895   7.200824   2.446114
    22  H    4.033672   2.682437   2.429362   4.737008   2.489081
    23  H    4.615043   5.815526   6.739599   4.754352   9.237514
    24  H    2.682437   4.033672   4.737008   2.429362   8.248583
    25  C    6.514509   6.218553   7.117675   7.584754   4.968291
    26  C    7.561702   7.431443   8.385493   8.595081   6.363683
    27  C    7.431443   7.561702   8.595081   8.385493   7.335220
    28  C    6.218553   6.514509   7.584754   7.117675   7.096796
    29  H    6.962288   6.461666   7.251400   8.051661   4.364652
    30  H    6.461666   6.962288   8.051661   7.251400   8.052771
    31  C    8.893052   8.676212   9.585529   9.941067   7.022546
    32  C    9.975434   9.876567  10.826891  10.990823   8.428786
    33  C    9.876567   9.975434  10.990823  10.826891   9.188018
    34  C    8.676212   8.893052   9.941067   9.585529   8.676300
    35  H    9.209376   8.834102   9.665791  10.284295   6.593610
    36  H    8.834102   9.209376  10.284295   9.665791   9.466761
    37  C   11.305726  11.136103  12.051934  12.336369   9.285120
    38  C   12.403345  12.324036  13.272181  13.406136  10.659696
    39  C   12.324036  12.403345  13.406136  13.272181  11.269132
    40  C   11.136103  11.305726  12.336369  12.051934  10.590311
    41  H   11.557659  11.261048  12.117401  12.616070   8.966468
    42  H   11.261048  11.557659  12.616070  12.117401  11.248165
    43  C   13.743474  13.603973  14.523784  14.761176  11.634926
    44  C   14.825175  14.759701  15.706645  15.818614  12.960218
    45  C   14.759701  14.825175  15.818614  15.706645  13.459851
    46  C   13.603973  13.743474  14.761176  14.523784  12.703125
    47  H   13.948795  13.703825  14.575544  14.993026  11.380037
    48  H   15.827901  15.720565  16.648547  16.832852  13.728651
    49  H   15.720565  15.827901  16.832852  16.648547  14.544836
    50  H   13.703825  13.948795  14.993026  14.575544  13.253992
                   21         22         23         24         25
    21  H    0.000000
    22  H    4.281658   0.000000
    23  H    8.333855   8.248583   0.000000
    24  H    8.020714   6.694832   2.489081   0.000000
    25  C    2.618754   6.231447   7.096796   7.579102   0.000000
    26  C    3.964556   7.635861   7.335220   8.243299   1.421324
    27  C    5.061317   8.243299   6.363683   7.635861   2.454691
    28  C    5.095007   7.579102   4.968291   6.231447   2.780034
    29  H    1.918693   6.007112   8.052771   8.323247   1.089198
    30  H    6.143706   8.323247   4.364652   6.007112   3.868974
    31  C    4.578082   8.606081   8.676300   9.637450   2.468077
    32  C    5.983715   9.966354   9.188018  10.441352   3.758320
    33  C    6.764122  10.441352   8.428786   9.966354   4.260312
    34  C    6.345816   9.637450   7.022546   8.606081   3.728899
    35  H    4.208103   8.425990   9.466761  10.219579   2.704230
    36  H    7.213177  10.219579   6.593610   8.425990   4.604332
    37  C    6.876897  11.023440  10.590311  11.845546   4.934780
    38  C    8.240675  12.344481  11.269132  12.730744   6.182371
    39  C    8.823209  12.730744  10.659696  12.344481   6.499513
    40  C    8.160073  11.845546   9.285120  11.023440   5.670898
    41  H    6.637597  10.884919  11.248165  12.325150   5.058090
    42  H    8.852371  12.325150   8.966468  10.884919   6.282135
    43  C    9.266748  13.463352  12.703125  14.145800   7.406795
    44  C   10.573407  14.735201  13.459851  15.056328   8.608571
    45  C   11.027935  15.056328  12.960218  14.735201   8.836297
    46  C   10.257185  14.145800  11.634926  13.463352   7.917366
    47  H    9.088372  13.347731  13.253992  14.547107   7.487216
    48  H   11.379843  15.590448  14.544836  16.117896   9.533594
    49  H   12.110535  16.117896  13.728651  15.590448   9.891121
    50  H   10.813629  14.547107  11.380037  13.347731   8.363683
                   26         27         28         29         30
    26  C    0.000000
    27  C    1.440754   0.000000
    28  C    2.454691   1.421324   0.000000
    29  H    2.143524   3.426009   3.868974   0.000000
    30  H    3.426009   2.143524   1.089198   4.957712   0.000000
    31  C    1.394155   2.448041   3.728899   2.665825   4.586968
    32  C    2.445141   2.839862   4.260312   4.068786   4.871695
    33  C    2.839862   2.445141   3.758320   4.871695   4.068786
    34  C    2.448041   1.394155   2.468077   4.586968   2.665825
    35  H    2.151915   3.439141   4.604332   2.439113   5.542056
    36  H    3.439141   2.151915   2.704230   5.542056   2.439113
    37  C    3.744031   4.250149   5.670898   5.023131   6.257342
    38  C    4.892632   5.101199   6.499513   6.365237   6.905702
    39  C    5.101199   4.892632   6.182371   6.905702   6.365237
    40  C    4.250149   3.744031   4.934780   6.257342   5.023131
    41  H    4.087910   4.889254   6.282135   4.907656   6.988515
    42  H    4.889254   4.087910   5.058090   6.988515   4.907656
    43  C    6.191296   6.510528   7.917366   7.456242   8.339570
    44  C    7.328336   7.467486   8.836297   8.734140   9.130703
    45  C    7.467486   7.328336   8.608571   9.130703   8.734140
    46  C    6.510528   6.191296   7.406795   8.339570   7.456242
    47  H    6.402889   6.942401   8.363683   7.376758   8.898986
    48  H    8.295724   8.509889   9.891121   9.583834  10.209546
    49  H    8.509889   8.295724   9.533594  10.209546   9.583834
    50  H    6.942401   6.402889   7.487216   8.898986   7.376758
                   31         32         33         34         35
    31  C    0.000000
    32  C    1.406777   0.000000
    33  C    2.459353   1.447926   0.000000
    34  C    2.810500   2.459353   1.406777   0.000000
    35  H    1.092385   2.159477   3.449076   3.902885   0.000000
    36  H    3.902885   3.449076   2.159477   1.092385   4.995270
    37  C    2.466730   1.410724   2.460950   3.738628   2.699195
    38  C    3.740963   2.447493   2.843410   4.249805   4.084792
    39  C    4.249805   2.843410   2.447493   3.740963   4.890024
    40  C    3.738628   2.460950   1.410724   2.466730   4.616667
    41  H    2.698089   2.161381   3.449809   4.616572   2.468583
    42  H    4.616572   3.449809   2.161381   2.698089   5.570969
    43  C    4.938745   3.770366   4.276760   5.683399   5.058710
    44  C    6.152893   4.883205   5.090655   6.471033   6.369713
    45  C    6.471033   5.090655   4.883205   6.152893   6.907348
    46  C    5.683399   4.276760   3.770366   4.938745   6.296756
    47  H    5.056292   4.108883   4.911080   6.293737   4.937690
    48  H    7.066248   5.857306   6.158338   7.546710   7.175034
    49  H    7.546710   6.158338   5.857306   7.066248   7.997493
    50  H    6.293737   4.911080   4.108883   5.056292   7.024520
                   36         37         38         39         40
    36  H    0.000000
    37  C    4.616667   0.000000
    38  C    4.890024   1.389718   0.000000
    39  C    4.084792   2.448285   1.446732   0.000000
    40  C    2.699195   2.808248   2.448285   1.389718   0.000000
    41  H    5.570969   1.092417   2.147106   3.440017   3.900665
    42  H    2.468583   3.900665   3.440017   2.147106   1.092417
    43  C    6.296756   2.472017   1.434000   2.475482   3.743575
    44  C    6.907348   3.711891   2.435719   2.828445   4.217950
    45  C    6.369713   4.217950   2.828445   2.435719   3.711891
    46  C    5.058710   3.743575   2.475482   1.434000   2.472017
    47  H    7.024520   2.701581   2.176046   3.459046   4.618693
    48  H    7.997493   4.600406   3.426792   3.918802   5.308397
    49  H    7.175034   5.308397   3.918802   3.426792   4.600406
    50  H    4.937690   4.618693   3.459046   2.176046   2.701581
                   41         42         43         44         45
    41  H    0.000000
    42  H    4.993082   0.000000
    43  C    2.700652   4.620169   0.000000
    44  C    4.058608   4.858743   1.364199   0.000000
    45  C    4.858743   4.058608   2.425443   1.428994   0.000000
    46  C    4.620169   2.700652   2.814382   2.425443   1.364199
    47  H    2.469108   5.572132   1.091484   2.137622   3.422076
    48  H    4.763237   5.929734   2.131650   1.090531   2.181526
    49  H    5.929734   4.763237   3.402146   2.181526   1.090531
    50  H    5.572132   2.469108   3.905865   3.422076   2.137622
                   46         47         48         49         50
    46  C    0.000000
    47  H    3.905865   0.000000
    48  H    3.402146   2.467665   0.000000
    49  H    2.131650   4.309680   2.498120   0.000000
    50  H    1.091484   4.997346   4.309680   2.467665   0.000000
 Stoichiometry    C32H18
 Framework group  C2V[SGV(C32H18)]
 Deg. of freedom    49
 Full point group                 C2V     NOp   4
 Largest Abelian subgroup         C2V     NOp   4
 Largest concise Abelian subgroup C2      NOp   2
                         Standard orientation:                         
 ---------------------------------------------------------------------
 Center     Atomic      Atomic             Coordinates (Angstroms)
 Number     Number       Type             X           Y           Z
 ---------------------------------------------------------------------
      1          6           0        0.000000    3.528330   -4.093330
      2          6           0        0.000000    2.847060   -2.874793
      3          6           0        0.000000    1.452430   -2.813041
      4          6           0        0.000000    0.721016   -4.031613
      5          6           0        0.000000    1.418801   -5.272570
      6          6           0        0.000000    2.824190   -5.282468
      7          6           0        0.000000    0.724762   -1.529966
      8          6           0       -0.000000   -0.721016   -4.031613
      9          6           0       -0.000000   -1.452430   -2.813041
     10          6           0       -0.000000   -0.724762   -1.529966
     11          6           0       -0.000000   -2.847060   -2.874793
     12          1           0        0.000000   -3.435430   -1.959325
     13          6           0       -0.000000   -3.528330   -4.093330
     14          6           0       -0.000000   -2.824190   -5.282468
     15          6           0       -0.000000   -1.418801   -5.272570
     16          6           0        0.000000   -0.677765   -6.501668
     17          6           0        0.000000    0.677765   -6.501668
     18          1           0        0.000000    1.235090   -7.440028
     19          1           0       -0.000000   -1.235090   -7.440028
     20          1           0        0.000000    4.618757   -4.100168
     21          1           0        0.000000    3.435430   -1.959325
     22          1           0        0.000000    3.347416   -6.240078
     23          1           0       -0.000000   -4.618757   -4.100168
     24          1           0       -0.000000   -3.347416   -6.240078
     25          6           0        0.000000    1.390017   -0.324039
     26          6           0        0.000000    0.720377    0.929653
     27          6           0       -0.000000   -0.720377    0.929653
     28          6           0       -0.000000   -1.390017   -0.324039
     29          1           0        0.000000    2.478856   -0.296090
     30          1           0       -0.000000   -2.478856   -0.296090
     31          6           0        0.000000    1.405250    2.143991
     32          6           0        0.000000    0.723963    3.374791
     33          6           0       -0.000000   -0.723963    3.374791
     34          6           0       -0.000000   -1.405250    2.143991
     35          1           0        0.000000    2.497635    2.142951
     36          1           0       -0.000000   -2.497635    2.142951
     37          6           0        0.000000    1.404124    4.610721
     38          6           0        0.000000    0.723366    5.822284
     39          6           0       -0.000000   -0.723366    5.822284
     40          6           0       -0.000000   -1.404124    4.610721
     41          1           0        0.000000    2.496541    4.611534
     42          1           0       -0.000000   -2.496541    4.611534
     43          6           0        0.000000    1.407191    7.082736
     44          6           0        0.000000    0.714497    8.257987
     45          6           0       -0.000000   -0.714497    8.257987
     46          6           0       -0.000000   -1.407191    7.082736
     47          1           0        0.000000    2.498673    7.080641
     48          1           0        0.000000    1.249060    9.208513
     49          1           0       -0.000000   -1.249060    9.208513
     50          1           0       -0.000000   -2.498673    7.080641
 ---------------------------------------------------------------------
 Rotational constants (GHZ):           0.4197698           0.0579876           0.0509493
 Leave Link  202 at Mon Jan 20 22:57:39 2020, MaxMem=  6710886400 cpu:               0.3 elap:               0.0
 (Enter /opt/ohpc/pub/libs/gaussian/g16-A.03/sandybridge/g16/l301.exe)
 Standard basis: def2TZVP (5D, 7F)
 Ernie: Thresh=  0.10000D-02 Tol=  0.10000D-05 Strict=F.
 There are   445 symmetry adapted cartesian basis functions of A1  symmetry.
 There are   185 symmetry adapted cartesian basis functions of A2  symmetry.
 There are   185 symmetry adapted cartesian basis functions of B1  symmetry.
 There are   445 symmetry adapted cartesian basis functions of B2  symmetry.
 There are   381 symmetry adapted basis functions of A1  symmetry.
 There are   169 symmetry adapted basis functions of A2  symmetry.
 There are   169 symmetry adapted basis functions of B1  symmetry.
 There are   381 symmetry adapted basis functions of B2  symmetry.
  1100 basis functions,  1776 primitive gaussians,  1260 cartesian basis functions
   105 alpha electrons      105 beta electrons
       nuclear repulsion energy      2666.2663971327 Hartrees.
 IExCor=33909 DFT=T Ex+Corr=LC-wHPBE ExCW=0 ScaHFX=  1.000000
 ScaDFX=  1.000000  1.000000  1.000000  1.000000 ScalE2=  1.000000  1.000000
 IRadAn=      5 IRanWt=     -1 IRanGd=            0 ICorTp=0 IEmpDi=  4
 HFx  wShort=  0.000000 wLong=  0.169000 cFull=  0.000000 cShort=  0.000000 cLong=  1.000000
 DFx  wShort=  0.000000 wLong=  0.169000 cFull=  0.000000 cShort=  1.000000 cLong=  0.000000
 NAtoms=   50 NActive=   50 NUniq=   25 SFac= 4.00D+00 NAtFMM=   60 NAOKFM=F Big=F
 Integral buffers will be    131072 words long.
 Raffenetti 2 integral format.
 Two-electron integral symmetry is turned on.
 Leave Link  301 at Mon Jan 20 22:57:39 2020, MaxMem=  6710886400 cpu:               1.1 elap:               0.1
 (Enter /opt/ohpc/pub/libs/gaussian/g16-A.03/sandybridge/g16/l302.exe)
 NPDir=0 NMtPBC=     1 NCelOv=     1 NCel=       1 NClECP=     1 NCelD=      1
         NCelK=      1 NCelE2=     1 NClLst=     1 CellRange=     0.0.
 One-electron integrals computed using PRISM.
 One-electron integral symmetry used in STVInt
   4 Symmetry operations used in ECPInt.
 ECPInt:  NShTT=   90100 NPrTT=  280884 LenC2=   66777 LenP2D=  142413.
 LDataN:  DoStor=T MaxTD1= 6 Len=  172
 NBasis=  1100 RedAO= T EigKep=  1.40D-06  NBF=   381   169   169   381
 NBsUse=  1100 1.00D-06 EigRej= -1.00D+00 NBFU=   381   169   169   381
 Precomputing XC quadrature grid using
 IXCGrd= 4 IRadAn=           5 IRanWt=          -1 IRanGd=           0 AccXCQ= 0.00D+00.
 Generated NRdTot=       0 NPtTot=           0 NUsed=           0 NTot=          32
 NSgBfM=  1199  1199  1199  1199  1199 MxSgAt=    50 MxSgA2=    50.
 Leave Link  302 at Mon Jan 20 22:57:42 2020, MaxMem=  6710886400 cpu:              32.9 elap:               2.1
 (Enter /opt/ohpc/pub/libs/gaussian/g16-A.03/sandybridge/g16/l303.exe)
 DipDrv:  MaxL=1.
 Leave Link  303 at Mon Jan 20 22:57:42 2020, MaxMem=  6710886400 cpu:               3.9 elap:               0.3
 (Enter /opt/ohpc/pub/libs/gaussian/g16-A.03/sandybridge/g16/l308.exe)
 Leave Link  308 at Mon Jan 20 22:57:42 2020, MaxMem=  6710886400 cpu:               7.2 elap:               0.5
 (Enter /opt/ohpc/pub/libs/gaussian/g16-A.03/sandybridge/g16/l401.exe)
 ExpMin= 9.52D-02 ExpMax= 1.36D+04 ExpMxC= 4.63D+02 IAcc=3 IRadAn=         5 AccDes= 0.00D+00
 Harris functional with IExCor=33909 and IRadAn=       5 diagonalized for initial guess.
 HarFok:  IExCor=33909 AccDes= 0.00D+00 IRadAn=         5 IDoV= 1 UseB2=F ITyADJ=14
 ICtDFT=  3500011 ScaDFX=  1.000000  1.000000  1.000000  1.000000
 FoFCou: FMM=F IPFlag=           0 FMFlag=      100000 FMFlg1=           0
         NFxFlg=           0 DoJE=T BraDBF=F KetDBF=T FulRan=T
         wScrn=  0.000000 ICntrl=       500 IOpCl=  0 I1Cent=   200000004 NGrid=           0
         NMat0=    1 NMatS0=      1 NMatT0=    0 NMatD0=    1 NMtDS0=    0 NMtDT0=    0
 Petite list used in FoFCou.
 Harris En= -1210.57602649283    
 JPrj=0 DoOrth=F DoCkMO=F.
 Initial guess orbital symmetries:
 Alpha Orbitals:
       Occupied  (B2) (A1) (A1) (B2) (A1) (B2) (A1) (B2) (B2) (A1)
                 (A1) (B2) (B2) (A1) (B2) (A1) (B2) (A1) (A1) (B2)
                 (A1) (B2) (A1) (B2) (A1) (B2) (A1) (B2) (A1) (B2)
                 (A1) (B2) (A1) (A1) (A1) (B2) (A1) (A1) (A1) (B2)
                 (B2) (A1) (B2) (B2) (A1) (B2) (A1) (B2) (A1) (B2)
                 (A1) (B2) (A1) (A1) (A1) (B2) (A1) (B2) (A1) (B2)
                 (A1) (A1) (A1) (B2) (A1) (A1) (B2) (B2) (A1) (A1)
                 (B2) (B2) (A1) (A1) (B2) (B2) (A1) (B2) (A1) (B1)
                 (B2) (B1) (B2) (B2) (A1) (A1) (B1) (B2) (A2) (A1)
                 (B1) (A1) (B2) (A1) (B1) (A2) (B1) (A2) (B1) (A2)
                 (B1) (A2) (A2) (B1) (A2)
       Virtual   (B1) (A2) (B1) (B1) (A2) (B1) (A2) (B1) (B1) (A2)
                 (A2) (B2) (A2) (A1) (A1) (B2) (A1) (B1) (A1) (B2)
                 (A1) (A2) (B2) (A1) (B2) (A1) (A2) (A1) (B2) (A1)
                 (A1) (A1) (B2) (B2) (A1) (B2) (A1) (A2) (B2) (A1)
                 (B2) (B2) (A1) (B2) (A1) (A1) (B2) (B2) (B1) (A1)
                 (B2) (A1) (B1) (B2) (A1) (B2) (A1) (B1) (A2) (B2)
                 (A1) (A1) (B2) (A1) (B2) (B1) (A2) (A1) (A2) (B2)
                 (A1) (A1) (B1) (B2) (B1) (A1) (A2) (B2) (A1) (A1)
                 (B1) (A1) (B1) (A2) (A1) (B2) (B1) (B2) (A1) (B2)
                 (A2) (B2) (B1) (B2) (A1) (A2) (B1) (A1) (B2) (A1)
                 (B2) (A1) (A1) (B1) (A1) (B2) (B2) (B1) (B2) (A2)
                 (A1) (B2) (A1) (B2) (B1) (A1) (B2) (B2) (A2) (A1)
                 (B1) (B2) (A1) (A1) (B2) (A1) (B2) (A2) (B2) (A1)
                 (B1) (A2) (B2) (B1) (A1) (A2) (B2) (B2) (B2) (A1)
                 (B2) (A1) (B2) (A1) (B2) (A2) (B1) (A1) (B2) (B1)
                 (A1) (A2) (B2) (A1) (B2) (A2) (A1) (A1) (B1) (A1)
                 (B2) (B2) (A1) (B1) (B2) (B2) (A1) (B2) (B2) (B1)
                 (A2) (A1) (B2) (B2) (B2) (B1) (A1) (B2) (B2) (A1)
                 (A2) (B1) (A2) (B2) (A1) (B2) (A1) (B2) (B2) (A1)
                 (A1) (A1) (B1) (B2) (A2) (A1) (B2) (A2) (A1) (B1)
                 (B2) (B1) (B2) (A1) (A2) (A1) (B2) (A1) (A1) (B2)
                 (B1) (A2) (A1) (A1) (B1) (B2) (A1) (B2) (A2) (A1)
                 (A1) (A1) (B1) (B2) (A1) (A1) (A2) (B2) (B2) (A1)
                 (A1) (B2) (A1) (B1) (A1) (B2) (A1) (B2) (B1) (B2)
                 (A2) (A1) (B2) (A1) (B2) (B1) (A1) (A1) (B2) (A1)
                 (A2) (A2) (B1) (B2) (A1) (B2) (B1) (A2) (A1) (B2)
                 (B2) (A1) (B2) (A2) (A1) (B2) (A1) (A2) (A1) (B1)
                 (B2) (A2) (A1) (B1) (A1) (B2) (A1) (B2) (A1) (B2)
                 (A2) (B1) (A2) (B2) (A1) (B1) (B1) (A1) (B1) (A2)
                 (B2) (A1) (B1) (B2) (A2) (A1) (B1) (B2) (B2) (A1)
                 (B2) (A1) (A2) (B2) (A1) (A1) (B1) (A2) (B2) (A1)
                 (B2) (A1) (B1) (A2) (A1) (B1) (B2) (A1) (B2) (B1)
                 (B2) (A2) (B2) (B2) (A1) (A1) (B1) (A2) (B2) (A1)
                 (B1) (B2) (A2) (B2) (B2) (B2) (A1) (A2) (B1) (A1)
                 (A1) (B2) (A2) (B1) (B2) (A1) (A2) (B2) (A1) (A1)
                 (B2) (B1) (A2) (A1) (B1) (B2) (A1) (B2) (B2) (A1)
                 (A2) (B2) (A1) (B1) (B2) (A1) (A1) (A2) (B1) (B2)
                 (A1) (A1) (B2) (A1) (A2) (B2) (A1) (A2) (B2) (B1)
                 (A2) (A1) (B2) (A1) (A2) (B1) (A1) (B2) (B2) (A2)
                 (B1) (B2) (A1) (A2) (B1) (B1) (A1) (A1) (B2) (A2)
                 (B2) (B2) (B1) (B2) (A1) (A2) (B2) (B2) (B1) (B2)
                 (A1) (A2) (B2) (B1) (A1) (B1) (A2) (B2) (A2) (A2)
                 (B1) (A2) (B1) (A1) (A2) (A2) (A1) (A1) (B2) (A2)
                 (A1) (B2) (B1) (B1) (A2) (B1) (B2) (A1) (B2) (B1)
                 (A2) (A1) (A1) (B2) (B1) (A1) (A2) (A1) (B2) (A1)
                 (B2) (A1) (B1) (A1) (A2) (B2) (A1) (A1) (B2) (B2)
                 (A1) (A1) (B2) (A1) (A1) (B2) (B2) (A1) (B2) (A1)
                 (B2) (A2) (A1) (B2) (A1) (B2) (A2) (A1) (B2) (A1)
                 (A2) (B2) (B2) (A2) (B1) (A1) (B2) (A1) (B2) (B1)
                 (A1) (A1) (B2) (A1) (B1) (A2) (A1) (B2) (A2) (B1)
                 (A1) (B1) (B2) (A1) (A1) (A1) (B2) (B1) (A2) (A1)
                 (B2) (B1) (B2) (A1) (B1) (B2) (A1) (A1) (B2) (B2)
                 (A1) (A1) (B2) (B1) (B2) (A1) (B1) (B2) (A1) (A2)
                 (B2) (A1) (A2) (B1) (A1) (B1) (B2) (B2) (A1) (A2)
                 (B1) (A1) (B2) (B1) (A2) (A1) (B1) (B1) (A1) (B2)
                 (B2) (A2) (A1) (B1) (B2) (A1) (B2) (A2) (B1) (A1)
                 (B2) (A2) (A1) (B1) (B1) (A2) (A2) (B1) (A1) (B2)
                 (B2) (B1) (B2) (A1) (A1) (A1) (B2) (B1) (B2) (A2)
                 (A1) (B2) (B1) (A1) (A2) (A1) (A2) (A2) (B1) (B2)
                 (A1) (B2) (B2) (A1) (A1) (A2) (A1) (B2) (B1) (B2)
                 (A1) (A2) (B2) (B1) (B2) (B1) (A1) (A2) (B1) (A1)
                 (B2) (A1) (B2) (B1) (B1) (B2) (B2) (B2) (A2) (A1)
                 (A1) (B1) (B2) (A1) (B1) (B1) (A2) (B2) (B1) (A1)
                 (B2) (A2) (B2) (A1) (B1) (A2) (B2) (A2) (B1) (B2)
                 (A1) (A2) (A1) (B1) (A1) (B1) (A1) (A2) (A1) (B2)
                 (A1) (A1) (B2) (A1) (B1) (B2) (A2) (B2) (A2) (B1)
                 (A1) (B1) (A1) (B2) (B1) (A1) (A2) (A1) (B2) (A2)
                 (B1) (A1) (B2) (A2) (A1) (B2) (B1) (A2) (B2) (B1)
                 (A2) (B2) (B1) (A2) (B1) (A1) (B2) (A1) (A2) (B2)
                 (A1) (B1) (A1) (B2) (A2) (A1) (B2) (A2) (B1) (A1)
                 (A1) (B2) (B1) (A1) (B2) (A2) (B2) (A1) (B2) (B2)
                 (A2) (B1) (A1) (B2) (A1) (B2) (A2) (B1) (A1) (B2)
                 (B1) (A2) (B2) (B1) (A2) (A1) (B2) (A2) (B2) (A1)
                 (A1) (B1) (A2) (B2) (A1) (B1) (A2) (B1) (B2) (A1)
                 (A2) (B2) (A2) (B2) (B1) (A1) (B1) (A2) (B2) (A1)
                 (A2) (A1) (B1) (B2) (A1) (B1) (B2) (A2) (B2) (A2)
                 (A1) (A2) (B2) (A1) (A2) (A1) (B2) (A1) (A2) (A2)
                 (B2) (B1) (A1) (A2) (B2) (B2) (A1) (B2) (A1) (B2)
                 (A1) (B2) (B1) (A1) (A2) (B2) (A1) (B2) (A2) (A1)
                 (B2) (B2) (A1) (A2) (B1) (A1) (A1) (B2) (B2) (A1)
                 (B2) (B2) (A1) (B2) (A1) (B2) (A1) (A1) (B2) (A1)
                 (B1) (A2) (B2) (A2) (B2) (B1) (A1) (B2) (B1) (B2)
                 (B1) (B2) (A1) (A2) (A2) (B2) (A1) (B1) (B1) (A2)
                 (A1) (B2) (B2) (B1) (A2) (A1) (B1) (B2) (A1) (A2)
                 (B1) (B2) (A1) (B2) (A1) (B1) (A1) (A1) (A2) (A2)
                 (A2) (B1) (A1) (B2) (B1) (A1) (B2) (A1) (B2) (B2)
                 (A2) (A1) (B1) (B1) (A2) (A1) (B2) (B2) (A1) (B2)
                 (A1) (A2) (B2) (A1) (A2) (B2) (A2) (A1) (B2) (B2)
                 (A2) (A1) (B1) (A1) (B1) (A1) (A2) (B2) (B2) (A1)
                 (A2) (B2) (A1) (B2) (A2) (A1) (B2) (B2) (A1) (B2)
                 (A1) (B2) (A1) (A2) (A2) (B2) (B2) (A1) (B2) (B2)
                 (A1) (B2) (A2) (A2) (A1) (A1) (A1) (B2) (A1) (B2)
                 (A1) (B2) (B2) (A1) (A1) (B2) (A1) (B2) (A1) (B2)
                 (A1) (B2) (A1) (A1) (B2) (B2) (A1) (B2) (B2) (A1)
                 (B2) (A1) (B2) (A1) (A1) (B2) (B2) (B2) (B2) (B2)
                 (A1) (B2) (B2) (B2) (B2) (B2) (A1) (B2) (B2) (B2)
                 (B2) (B2) (B2) (A1) (A1) (B2) (A1) (A1) (B2) (A1)
                 (A1) (A1) (B2) (A1) (A1) (B2) (A1) (B2) (B2) (A1)
                 (A1) (B2) (A1) (B2) (A1) (B2) (A1) (B2) (B2) (B2)
                 (A1) (B2) (B2) (B2) (B2)
 Beta  Orbitals:
       Occupied  (B2) (A1) (A1) (B2) (A1) (B2) (A1) (B2) (B2) (A1)
                 (A1) (B2) (B2) (A1) (B2) (A1) (B2) (A1) (A1) (B2)
                 (A1) (B2) (A1) (B2) (A1) (B2) (A1) (B2) (A1) (B2)
                 (A1) (B2) (A1) (A1) (A1) (B2) (A1) (A1) (A1) (B2)
                 (B2) (A1) (B2) (B2) (A1) (B2) (A1) (B2) (A1) (B2)
                 (A1) (B2) (A1) (A1) (A1) (B2) (A1) (B2) (A1) (B2)
                 (A1) (A1) (A1) (B2) (A1) (A1) (B2) (B2) (A1) (A1)
                 (B2) (B2) (A1) (A1) (B2) (B2) (A1) (B2) (A1) (B1)
                 (B2) (B1) (B2) (B2) (A1) (A1) (B1) (B2) (A2) (A1)
                 (B1) (A1) (B2) (A1) (B1) (A2) (B1) (A2) (B1) (A2)
                 (B1) (A2) (A2) (B1) (A2)
       Virtual   (B1) (A2) (B1) (B1) (A2) (B1) (A2) (B1) (B1) (A2)
                 (A2) (B2) (A2) (A1) (A1) (B2) (A1) (B1) (A1) (B2)
                 (A1) (A2) (B2) (A1) (B2) (A1) (A2) (A1) (B2) (A1)
                 (A1) (A1) (B2) (B2) (A1) (B2) (A1) (A2) (B2) (A1)
                 (B2) (B2) (A1) (B2) (A1) (A1) (B2) (B2) (B1) (A1)
                 (B2) (A1) (B1) (B2) (A1) (B2) (A1) (B1) (A2) (B2)
                 (A1) (A1) (B2) (A1) (B2) (B1) (A2) (A1) (A2) (B2)
                 (A1) (A1) (B1) (B2) (B1) (A1) (A2) (B2) (A1) (A1)
                 (B1) (A1) (B1) (A2) (A1) (B2) (B1) (B2) (A1) (B2)
                 (A2) (B2) (B1) (B2) (A1) (A2) (B1) (A1) (B2) (A1)
                 (B2) (A1) (A1) (B1) (A1) (B2) (B2) (B1) (B2) (A2)
                 (A1) (B2) (A1) (B2) (B1) (A1) (B2) (B2) (A2) (A1)
                 (B1) (B2) (A1) (A1) (B2) (A1) (B2) (A2) (B2) (A1)
                 (B1) (A2) (B2) (B1) (A1) (A2) (B2) (B2) (B2) (A1)
                 (B2) (A1) (B2) (A1) (B2) (A2) (B1) (A1) (B2) (B1)
                 (A1) (A2) (B2) (A1) (B2) (A2) (A1) (A1) (B1) (A1)
                 (B2) (B2) (A1) (B1) (B2) (B2) (A1) (B2) (B2) (B1)
                 (A2) (A1) (B2) (B2) (B2) (B1) (A1) (B2) (B2) (A1)
                 (A2) (B1) (A2) (B2) (A1) (B2) (A1) (B2) (B2) (A1)
                 (A1) (A1) (B1) (B2) (A2) (A1) (B2) (A2) (A1) (B1)
                 (B2) (B1) (B2) (A1) (A2) (A1) (B2) (A1) (A1) (B2)
                 (B1) (A2) (A1) (A1) (B1) (B2) (A1) (B2) (A2) (A1)
                 (A1) (A1) (B1) (B2) (A1) (A1) (A2) (B2) (B2) (A1)
                 (A1) (B2) (A1) (B1) (A1) (B2) (A1) (B2) (B1) (B2)
                 (A2) (A1) (B2) (A1) (B2) (B1) (A1) (A1) (B2) (A1)
                 (A2) (A2) (B1) (B2) (A1) (B2) (B1) (A2) (A1) (B2)
                 (B2) (A1) (B2) (A2) (A1) (B2) (A1) (A2) (A1) (B1)
                 (B2) (A2) (A1) (B1) (A1) (B2) (A1) (B2) (A1) (B2)
                 (A2) (B1) (A2) (B2) (A1) (B1) (B1) (A1) (B1) (A2)
                 (B2) (A1) (B1) (B2) (A2) (A1) (B1) (B2) (B2) (A1)
                 (B2) (A1) (A2) (B2) (A1) (A1) (B1) (A2) (B2) (A1)
                 (B2) (A1) (B1) (A2) (A1) (B1) (B2) (A1) (B2) (B1)
                 (B2) (A2) (B2) (B2) (A1) (A1) (B1) (A2) (B2) (A1)
                 (B1) (B2) (A2) (B2) (B2) (B2) (A1) (A2) (B1) (A1)
                 (A1) (B2) (A2) (B1) (B2) (A1) (A2) (B2) (A1) (A1)
                 (B2) (B1) (A2) (A1) (B1) (B2) (A1) (B2) (B2) (A1)
                 (A2) (B2) (A1) (B1) (B2) (A1) (A1) (A2) (B1) (B2)
                 (A1) (A1) (B2) (A1) (A2) (B2) (A1) (A2) (B2) (B1)
                 (A2) (A1) (B2) (A1) (A2) (B1) (A1) (B2) (B2) (A2)
                 (B1) (B2) (A1) (A2) (B1) (B1) (A1) (A1) (B2) (A2)
                 (B2) (B2) (B1) (B2) (A1) (A2) (B2) (B2) (B1) (B2)
                 (A1) (A2) (B2) (B1) (A1) (B1) (A2) (B2) (A2) (A2)
                 (B1) (A2) (B1) (A1) (A2) (A2) (A1) (A1) (B2) (A2)
                 (A1) (B2) (B1) (B1) (A2) (B1) (B2) (A1) (B2) (B1)
                 (A2) (A1) (A1) (B2) (B1) (A1) (A2) (A1) (B2) (A1)
                 (B2) (A1) (B1) (A1) (A2) (B2) (A1) (A1) (B2) (B2)
                 (A1) (A1) (B2) (A1) (A1) (B2) (B2) (A1) (B2) (A1)
                 (B2) (A2) (A1) (B2) (A1) (B2) (A2) (A1) (B2) (A1)
                 (A2) (B2) (B2) (A2) (B1) (A1) (B2) (A1) (B2) (B1)
                 (A1) (A1) (B2) (A1) (B1) (A2) (A1) (B2) (A2) (B1)
                 (A1) (B1) (B2) (A1) (A1) (A1) (B2) (B1) (A2) (A1)
                 (B2) (B1) (B2) (A1) (B1) (B2) (A1) (A1) (B2) (B2)
                 (A1) (A1) (B2) (B1) (B2) (A1) (B1) (B2) (A1) (A2)
                 (B2) (A1) (A2) (B1) (A1) (B1) (B2) (B2) (A1) (A2)
                 (B1) (A1) (B2) (B1) (A2) (A1) (B1) (B1) (A1) (B2)
                 (B2) (A2) (A1) (B1) (B2) (A1) (B2) (A2) (B1) (A1)
                 (B2) (A2) (A1) (B1) (B1) (A2) (A2) (B1) (A1) (B2)
                 (B2) (B1) (B2) (A1) (A1) (A1) (B2) (B1) (B2) (A2)
                 (A1) (B2) (B1) (A1) (A2) (A1) (A2) (A2) (B1) (B2)
                 (A1) (B2) (B2) (A1) (A1) (A2) (A1) (B2) (B1) (B2)
                 (A1) (A2) (B2) (B1) (B2) (B1) (A1) (A2) (B1) (A1)
                 (B2) (A1) (B2) (B1) (B1) (B2) (B2) (B2) (A2) (A1)
                 (A1) (B1) (B2) (A1) (B1) (B1) (A2) (B2) (B1) (A1)
                 (B2) (A2) (B2) (A1) (B1) (A2) (B2) (A2) (B1) (B2)
                 (A1) (A2) (A1) (B1) (A1) (B1) (A1) (A2) (A1) (B2)
                 (A1) (A1) (B2) (A1) (B1) (B2) (A2) (B2) (A2) (B1)
                 (A1) (B1) (A1) (B2) (B1) (A1) (A2) (A1) (B2) (A2)
                 (B1) (A1) (B2) (A2) (A1) (B2) (B1) (A2) (B2) (B1)
                 (A2) (B2) (B1) (A2) (B1) (A1) (B2) (A1) (A2) (B2)
                 (A1) (B1) (A1) (B2) (A2) (A1) (B2) (A2) (B1) (A1)
                 (A1) (B2) (B1) (A1) (B2) (A2) (B2) (A1) (B2) (B2)
                 (A2) (B1) (A1) (B2) (A1) (B2) (A2) (B1) (A1) (B2)
                 (B1) (A2) (B2) (B1) (A2) (A1) (B2) (A2) (B2) (A1)
                 (A1) (B1) (A2) (B2) (A1) (B1) (A2) (B1) (B2) (A1)
                 (A2) (B2) (A2) (B2) (B1) (A1) (B1) (A2) (B2) (A1)
                 (A2) (A1) (B1) (B2) (A1) (B1) (B2) (A2) (B2) (A2)
                 (A1) (A2) (B2) (A1) (A2) (A1) (B2) (A1) (A2) (A2)
                 (B2) (B1) (A1) (A2) (B2) (B2) (A1) (B2) (A1) (B2)
                 (A1) (B2) (B1) (A1) (A2) (B2) (A1) (B2) (A2) (A1)
                 (B2) (B2) (A1) (A2) (B1) (A1) (A1) (B2) (B2) (A1)
                 (B2) (B2) (A1) (B2) (A1) (B2) (A1) (A1) (B2) (A1)
                 (B1) (A2) (B2) (A2) (B2) (B1) (A1) (B2) (B1) (B2)
                 (B1) (B2) (A1) (A2) (A2) (B2) (A1) (B1) (B1) (A2)
                 (A1) (B2) (B2) (B1) (A2) (A1) (B1) (B2) (A1) (A2)
                 (B1) (B2) (A1) (B2) (A1) (B1) (A1) (A1) (A2) (A2)
                 (A2) (B1) (A1) (B2) (B1) (A1) (B2) (A1) (B2) (B2)
                 (A2) (A1) (B1) (B1) (A2) (A1) (B2) (B2) (A1) (B2)
                 (A1) (A2) (B2) (A1) (A2) (B2) (A2) (A1) (B2) (B2)
                 (A2) (A1) (B1) (A1) (B1) (A1) (A2) (B2) (B2) (A1)
                 (A2) (B2) (A1) (B2) (A2) (A1) (B2) (B2) (A1) (B2)
                 (A1) (B2) (A1) (A2) (A2) (B2) (B2) (A1) (B2) (B2)
                 (A1) (B2) (A2) (A2) (A1) (A1) (A1) (B2) (A1) (B2)
                 (A1) (B2) (B2) (A1) (A1) (B2) (A1) (B2) (A1) (B2)
                 (A1) (B2) (A1) (A1) (B2) (B2) (A1) (B2) (B2) (A1)
                 (B2) (A1) (B2) (A1) (A1) (B2) (B2) (B2) (B2) (B2)
                 (A1) (B2) (B2) (B2) (B2) (B2) (A1) (B2) (B2) (B2)
                 (B2) (B2) (B2) (A1) (A1) (B2) (A1) (A1) (B2) (A1)
                 (A1) (A1) (B2) (A1) (A1) (B2) (A1) (B2) (B2) (A1)
                 (A1) (B2) (A1) (B2) (A1) (B2) (A1) (B2) (B2) (B2)
                 (A1) (B2) (B2) (B2) (B2)
 The electronic state of the initial guess is 1-A1.
 Initial guess <Sx>= 0.0000 <Sy>= 0.0000 <Sz>= 0.0000 <S**2>=-0.0000 S=-0.0000
 Leave Link  401 at Mon Jan 20 22:57:48 2020, MaxMem=  6710886400 cpu:              93.1 elap:               5.9
 (Enter /opt/ohpc/pub/libs/gaussian/g16-A.03/sandybridge/g16/l502.exe)
 Integral symmetry usage will be decided dynamically.
 UHF open shell SCF:
 Using DIIS extrapolation, IDIIS=  1040.
 NGot=  6710886400 LenX=  6707671970 LenY=  6706083110
 Requested convergence on RMS density matrix=1.00D-08 within 128 cycles.
 Requested convergence on MAX density matrix=1.00D-06.
 Requested convergence on             energy=1.00D-06.
 No special actions if energy rises.
 Fock matrices will be formed incrementally for  20 cycles.
 Integral accuracy reduced to 1.0D-05 until final iterations.

 Cycle   1  Pass 0  IDiag  1:
 FoFJK:  IHMeth= 1 ICntrl=       0 DoSepK=T KAlg= 0 I1Cent=           0 FoldK=F
 IRaf=         1 NMat=       1 IRICut=       1 DoRegI=T DoRafI=F ISym2E= 1 IDoP0=0 IntGTp=1.
 FoFCou: FMM=F IPFlag=           0 FMFlag=      100000 FMFlg1=           0
         NFxFlg=           0 DoJE=T BraDBF=F KetDBF=F FulRan=T
         wScrn=  0.000000 ICntrl=       500 IOpCl=  0 I1Cent=           0 NGrid=           0
         NMat0=    1 NMatS0=      1 NMatT0=    0 NMatD0=    1 NMtDS0=    0 NMtDT0=    0
 Petite list used in FoFCou.
 E= -1229.08361416918    
 DIIS: error= 2.05D-02 at cycle   1 NSaved=   1.
 NSaved= 1 IEnMin= 1 EnMin= -1229.08361416918     IErMin= 1 ErrMin= 2.05D-02
 ErrMax= 2.05D-02  0.00D+00 EMaxC= 1.00D-01 BMatC= 1.71D+00 BMatP= 1.71D+00
 IDIUse=3 WtCom= 7.95D-01 WtEn= 2.05D-01
 Coeff-Com:  0.100D+01
 Coeff-En:   0.100D+01
 Coeff:      0.100D+01
 Gap=     0.180 Goal=   None    Shift=    0.000
 Gap=     0.180 Goal=   None    Shift=    0.000
 GapD=    0.180 DampG=1.000 DampE=0.500 DampFc=0.5000 IDamp=-1.
 Damping current iteration by 5.00D-01
 RMSDP=4.37D+02 MaxDP=5.20D+04              OVMax= 9.94D-01

 Problem detected with inexpensive integrals.
 Switching to full accuracy and repeating last cycle.
 Cycle   2  Pass 1  IDiag  1:
 E= -1229.08386305230     Delta-E=       -0.000248883125 Rises=F Damp=F
 DIIS: error= 2.05D-02 at cycle   1 NSaved=   1.
 NSaved= 1 IEnMin= 1 EnMin= -1229.08386305230     IErMin= 1 ErrMin= 2.05D-02
 ErrMax= 2.05D-02  0.00D+00 EMaxC= 1.00D-01 BMatC= 1.69D+00 BMatP= 1.69D+00
 IDIUse=3 WtCom= 7.95D-01 WtEn= 2.05D-01
 Coeff-Com:  0.100D+01
 Coeff-En:   0.100D+01
 Coeff:      0.100D+01
 Gap=     0.180 Goal=   None    Shift=    0.000
 Gap=     0.180 Goal=   None    Shift=    0.000
 GapD=    0.180 DampG=1.000 DampE=0.500 DampFc=0.5000 IDamp=-1.
 Damping current iteration by 5.00D-01
 RMSDP=1.35D-03 MaxDP=4.47D-02 DE=-2.49D-04 OVMax= 1.19D-01

 Cycle   3  Pass 1  IDiag  1:
 RMSU=  6.56D-04    CP:  9.71D-01
 E= -1229.31708358967     Delta-E=       -0.233220537366 Rises=F Damp=T
 DIIS: error= 5.55D-03 at cycle   2 NSaved=   2.
 NSaved= 2 IEnMin= 2 EnMin= -1229.31708358967     IErMin= 2 ErrMin= 5.55D-03
 ErrMax= 5.55D-03  0.00D+00 EMaxC= 1.00D-01 BMatC= 1.08D-01 BMatP= 1.69D+00
 IDIUse=3 WtCom= 9.44D-01 WtEn= 5.55D-02
 Coeff-Com: -0.150D+00 0.115D+01
 Coeff-En:   0.000D+00 0.100D+01
 Coeff:     -0.142D+00 0.114D+01
 Gap=     0.185 Goal=   None    Shift=    0.000
 Gap=     0.185 Goal=   None    Shift=    0.000
 GapD=    0.185 DampG=1.000 DampE=1.000 DampFc=1.0000 IDamp=-1.
 RMSDP=5.58D-04 MaxDP=5.93D-02 DE=-2.33D-01 OVMax= 5.35D-02

 Cycle   4  Pass 1  IDiag  1:
 RMSU=  5.03D-04    CP:  9.28D-01  1.11D+00
 E= -1229.51907129467     Delta-E=       -0.201987704998 Rises=F Damp=F
 DIIS: error= 3.44D-03 at cycle   3 NSaved=   3.
 NSaved= 3 IEnMin= 3 EnMin= -1229.51907129467     IErMin= 3 ErrMin= 3.44D-03
 ErrMax= 3.44D-03  0.00D+00 EMaxC= 1.00D-01 BMatC= 3.54D-02 BMatP= 1.08D-01
 IDIUse=3 WtCom= 9.66D-01 WtEn= 3.44D-02
 Coeff-Com: -0.912D-01 0.449D+00 0.642D+00
 Coeff-En:   0.000D+00 0.000D+00 0.100D+01
 Coeff:     -0.880D-01 0.434D+00 0.654D+00
 Gap=     0.184 Goal=   None    Shift=    0.000
 Gap=     0.184 Goal=   None    Shift=    0.000
 RMSDP=1.39D-04 MaxDP=7.78D-03 DE=-2.02D-01 OVMax= 3.14D-02

 Cycle   5  Pass 1  IDiag  1:
 RMSU=  1.22D-04    CP:  9.34D-01  1.09D+00  8.84D-01
 E= -1229.52405460441     Delta-E=       -0.004983309744 Rises=F Damp=F
 DIIS: error= 2.86D-03 at cycle   4 NSaved=   4.
 NSaved= 4 IEnMin= 4 EnMin= -1229.52405460441     IErMin= 4 ErrMin= 2.86D-03
 ErrMax= 2.86D-03  0.00D+00 EMaxC= 1.00D-01 BMatC= 1.44D-02 BMatP= 3.54D-02
 IDIUse=3 WtCom= 9.71D-01 WtEn= 2.86D-02
 Coeff-Com: -0.339D-01 0.132D+00 0.406D+00 0.495D+00
 Coeff-En:   0.000D+00 0.000D+00 0.318D+00 0.682D+00
 Coeff:     -0.330D-01 0.129D+00 0.404D+00 0.501D+00
 Gap=     0.183 Goal=   None    Shift=    0.000
 Gap=     0.183 Goal=   None    Shift=    0.000
 RMSDP=5.35D-05 MaxDP=3.57D-03 DE=-4.98D-03 OVMax= 1.38D-02

 Cycle   6  Pass 1  IDiag  1:
 RMSU=  4.78D-05    CP:  9.35D-01  1.09D+00  8.79D-01  8.15D-01
 E= -1229.52770319122     Delta-E=       -0.003648586812 Rises=F Damp=F
 DIIS: error= 4.31D-04 at cycle   5 NSaved=   5.
 NSaved= 5 IEnMin= 5 EnMin= -1229.52770319122     IErMin= 5 ErrMin= 4.31D-04
 ErrMax= 4.31D-04  0.00D+00 EMaxC= 1.00D-01 BMatC= 4.22D-04 BMatP= 1.44D-02
 IDIUse=3 WtCom= 9.96D-01 WtEn= 4.31D-03
 Coeff-Com: -0.936D-02 0.336D-01 0.139D+00 0.225D+00 0.612D+00
 Coeff-En:   0.000D+00 0.000D+00 0.000D+00 0.000D+00 0.100D+01
 Coeff:     -0.932D-02 0.334D-01 0.138D+00 0.224D+00 0.614D+00
 Gap=     0.183 Goal=   None    Shift=    0.000
 Gap=     0.183 Goal=   None    Shift=    0.000
 RMSDP=1.71D-05 MaxDP=9.93D-04 DE=-3.65D-03 OVMax= 3.18D-03

 Cycle   7  Pass 1  IDiag  1:
 RMSU=  1.37D-05    CP:  9.35D-01  1.09D+00  8.93D-01  8.67D-01  1.01D+00
 E= -1229.52780329456     Delta-E=       -0.000100103336 Rises=F Damp=F
 DIIS: error= 1.70D-04 at cycle   6 NSaved=   6.
 NSaved= 6 IEnMin= 6 EnMin= -1229.52780329456     IErMin= 6 ErrMin= 1.70D-04
 ErrMax= 1.70D-04  0.00D+00 EMaxC= 1.00D-01 BMatC= 6.58D-05 BMatP= 4.22D-04
 IDIUse=3 WtCom= 9.98D-01 WtEn= 1.70D-03
 Coeff-Com: -0.123D-02 0.382D-02 0.309D-01 0.672D-01 0.331D+00 0.568D+00
 Coeff-En:   0.000D+00 0.000D+00 0.000D+00 0.000D+00 0.405D-01 0.959D+00
 Coeff:     -0.123D-02 0.382D-02 0.309D-01 0.671D-01 0.330D+00 0.569D+00
 Gap=     0.183 Goal=   None    Shift=    0.000
 Gap=     0.183 Goal=   None    Shift=    0.000
 RMSDP=5.53D-06 MaxDP=3.67D-04 DE=-1.00D-04 OVMax= 1.38D-03

 Cycle   8  Pass 1  IDiag  1:
 RMSU=  4.08D-06    CP:  9.35D-01  1.09D+00  8.94D-01  8.83D-01  1.07D+00
                    CP:  1.05D+00
 E= -1229.52782191473     Delta-E=       -0.000018620169 Rises=F Damp=F
 DIIS: error= 6.54D-05 at cycle   7 NSaved=   7.
 NSaved= 7 IEnMin= 7 EnMin= -1229.52782191473     IErMin= 7 ErrMin= 6.54D-05
 ErrMax= 6.54D-05  0.00D+00 EMaxC= 1.00D-01 BMatC= 2.57D-06 BMatP= 6.58D-05
 IDIUse=1 WtCom= 1.00D+00 WtEn= 0.00D+00
 Coeff-Com:  0.923D-03-0.342D-02-0.976D-02-0.119D-01 0.104D-01 0.131D+00
 Coeff-Com:  0.883D+00
 Coeff:      0.923D-03-0.342D-02-0.976D-02-0.119D-01 0.104D-01 0.131D+00
 Coeff:      0.883D+00
 Gap=     0.183 Goal=   None    Shift=    0.000
 Gap=     0.183 Goal=   None    Shift=    0.000
 RMSDP=3.80D-06 MaxDP=2.91D-04 DE=-1.86D-05 OVMax= 6.74D-04

 Cycle   9  Pass 1  IDiag  1:
 RMSU=  1.53D-06    CP:  9.36D-01  1.09D+00  8.94D-01  8.97D-01  1.11D+00
                    CP:  1.17D+00  1.17D+00
 E= -1229.52782349106     Delta-E=       -0.000001576339 Rises=F Damp=F
 DIIS: error= 2.38D-05 at cycle   8 NSaved=   8.
 NSaved= 8 IEnMin= 8 EnMin= -1229.52782349106     IErMin= 8 ErrMin= 2.38D-05
 ErrMax= 2.38D-05  0.00D+00 EMaxC= 1.00D-01 BMatC= 1.12D-06 BMatP= 2.57D-06
 IDIUse=1 WtCom= 1.00D+00 WtEn= 0.00D+00
 Coeff-Com:  0.666D-03-0.239D-02-0.997D-02-0.169D-01-0.440D-01-0.176D-01
 Coeff-Com:  0.472D+00 0.618D+00
 Coeff:      0.666D-03-0.239D-02-0.997D-02-0.169D-01-0.440D-01-0.176D-01
 Coeff:      0.472D+00 0.618D+00
 Gap=     0.183 Goal=   None    Shift=    0.000
 Gap=     0.183 Goal=   None    Shift=    0.000
 RMSDP=1.07D-06 MaxDP=7.38D-05 DE=-1.58D-06 OVMax= 2.80D-04

 Cycle  10  Pass 1  IDiag  1:
 RMSU=  4.98D-07    CP:  9.36D-01  1.09D+00  8.94D-01  9.00D-01  1.13D+00
                    CP:  1.21D+00  1.26D+00  1.10D+00
 E= -1229.52782391895     Delta-E=       -0.000000427883 Rises=F Damp=F
 DIIS: error= 9.78D-06 at cycle   9 NSaved=   9.
 NSaved= 9 IEnMin= 9 EnMin= -1229.52782391895     IErMin= 9 ErrMin= 9.78D-06
 ErrMax= 9.78D-06  0.00D+00 EMaxC= 1.00D-01 BMatC= 6.10D-08 BMatP= 1.12D-06
 IDIUse=1 WtCom= 1.00D+00 WtEn= 0.00D+00
 Coeff-Com:  0.838D-05-0.683D-04-0.886D-03-0.214D-02-0.102D-01-0.206D-01
 Coeff-Com: -0.157D-01 0.155D+00 0.895D+00
 Coeff:      0.838D-05-0.683D-04-0.886D-03-0.214D-02-0.102D-01-0.206D-01
 Coeff:     -0.157D-01 0.155D+00 0.895D+00
 Gap=     0.183 Goal=   None    Shift=    0.000
 Gap=     0.183 Goal=   None    Shift=    0.000
 RMSDP=2.87D-07 MaxDP=1.11D-05 DE=-4.28D-07 OVMax= 1.18D-04

 Cycle  11  Pass 1  IDiag  1:
 RMSU=  2.39D-07    CP:  9.36D-01  1.09D+00  8.94D-01  9.00D-01  1.13D+00
                    CP:  1.21D+00  1.28D+00  1.17D+00  1.10D+00
 E= -1229.52782396060     Delta-E=       -0.000000041653 Rises=F Damp=F
 DIIS: error= 2.81D-06 at cycle  10 NSaved=  10.
 NSaved=10 IEnMin=10 EnMin= -1229.52782396060     IErMin=10 ErrMin= 2.81D-06
 ErrMax= 2.81D-06  0.00D+00 EMaxC= 1.00D-01 BMatC= 1.75D-08 BMatP= 6.10D-08
 IDIUse=1 WtCom= 1.00D+00 WtEn= 0.00D+00
 Coeff-Com: -0.878D-04 0.289D-03 0.877D-03 0.121D-02 0.816D-03-0.745D-02
 Coeff-Com: -0.704D-01-0.478D-02 0.439D+00 0.640D+00
 Coeff:     -0.878D-04 0.289D-03 0.877D-03 0.121D-02 0.816D-03-0.745D-02
 Coeff:     -0.704D-01-0.478D-02 0.439D+00 0.640D+00
 Gap=     0.183 Goal=   None    Shift=    0.000
 Gap=     0.183 Goal=   None    Shift=    0.000
 RMSDP=1.17D-07 MaxDP=7.58D-06 DE=-4.17D-08 OVMax= 3.34D-05

 Cycle  12  Pass 1  IDiag  1:
 RMSU=  7.50D-08    CP:  9.36D-01  1.09D+00  8.94D-01  9.00D-01  1.13D+00
                    CP:  1.21D+00  1.28D+00  1.18D+00  1.18D+00  1.09D+00
 E= -1229.52782396747     Delta-E=       -0.000000006867 Rises=F Damp=F
 DIIS: error= 1.04D-06 at cycle  11 NSaved=  11.
 NSaved=11 IEnMin=11 EnMin= -1229.52782396747     IErMin=11 ErrMin= 1.04D-06
 ErrMax= 1.04D-06  0.00D+00 EMaxC= 1.00D-01 BMatC= 1.64D-09 BMatP= 1.75D-08
 IDIUse=1 WtCom= 1.00D+00 WtEn= 0.00D+00
 Coeff-Com: -0.387D-04 0.132D-03 0.496D-03 0.836D-03 0.175D-02-0.182D-04
 Coeff-Com: -0.280D-01-0.253D-01 0.476D-01 0.255D+00 0.747D+00
 Coeff:     -0.387D-04 0.132D-03 0.496D-03 0.836D-03 0.175D-02-0.182D-04
 Coeff:     -0.280D-01-0.253D-01 0.476D-01 0.255D+00 0.747D+00
 Gap=     0.183 Goal=   None    Shift=    0.000
 Gap=     0.183 Goal=   None    Shift=    0.000
 RMSDP=6.21D-08 MaxDP=3.99D-06 DE=-6.87D-09 OVMax= 1.37D-05

 Cycle  13  Pass 1  IDiag  1:
 RMSU=  3.47D-08    CP:  9.36D-01  1.09D+00  8.94D-01  8.99D-01  1.12D+00
                    CP:  1.21D+00  1.28D+00  1.19D+00  1.20D+00  1.16D+00
                    CP:  1.23D+00
 E= -1229.52782396848     Delta-E=       -0.000000001013 Rises=F Damp=F
 DIIS: error= 4.64D-07 at cycle  12 NSaved=  12.
 NSaved=12 IEnMin=12 EnMin= -1229.52782396848     IErMin=12 ErrMin= 4.64D-07
 ErrMax= 4.64D-07  0.00D+00 EMaxC= 1.00D-01 BMatC= 1.49D-10 BMatP= 1.64D-09
 IDIUse=1 WtCom= 1.00D+00 WtEn= 0.00D+00
 Coeff-Com: -0.151D-05 0.623D-05 0.465D-04 0.110D-03 0.370D-03 0.719D-03
 Coeff-Com: -0.702D-03-0.599D-02-0.303D-01 0.200D-02 0.198D+00 0.835D+00
 Coeff:     -0.151D-05 0.623D-05 0.465D-04 0.110D-03 0.370D-03 0.719D-03
 Coeff:     -0.702D-03-0.599D-02-0.303D-01 0.200D-02 0.198D+00 0.835D+00
 Gap=     0.183 Goal=   None    Shift=    0.000
 Gap=     0.183 Goal=   None    Shift=    0.000
 RMSDP=2.42D-08 MaxDP=1.15D-06 DE=-1.01D-09 OVMax= 6.74D-06

 Cycle  14  Pass 1  IDiag  1:
 RMSU=  1.17D-08    CP:  9.36D-01  1.09D+00  8.94D-01  8.99D-01  1.12D+00
                    CP:  1.21D+00  1.28D+00  1.19D+00  1.20D+00  1.18D+00
                    CP:  1.35D+00  1.22D+00
 E= -1229.52782396830     Delta-E=        0.000000000180 Rises=F Damp=F
 DIIS: error= 2.89D-07 at cycle  13 NSaved=  13.
 NSaved=13 IEnMin=12 EnMin= -1229.52782396848     IErMin=13 ErrMin= 2.89D-07
 ErrMax= 2.89D-07  0.00D+00 EMaxC= 1.00D-01 BMatC= 5.80D-11 BMatP= 1.49D-10
 IDIUse=1 WtCom= 1.00D+00 WtEn= 0.00D+00
 Coeff-Com:  0.770D-05-0.254D-04-0.860D-04-0.130D-03-0.192D-03 0.415D-03
 Coeff-Com:  0.600D-02 0.271D-02-0.257D-01-0.546D-01-0.640D-01 0.415D+00
 Coeff-Com:  0.720D+00
 Coeff:      0.770D-05-0.254D-04-0.860D-04-0.130D-03-0.192D-03 0.415D-03
 Coeff:      0.600D-02 0.271D-02-0.257D-01-0.546D-01-0.640D-01 0.415D+00
 Coeff:      0.720D+00
 Gap=     0.183 Goal=   None    Shift=    0.000
 Gap=     0.183 Goal=   None    Shift=    0.000
 RMSDP=1.01D-08 MaxDP=3.91D-07 DE= 1.80D-10 OVMax= 3.19D-06

 Cycle  15  Pass 1  IDiag  1:
 RMSU=  5.25D-09    CP:  9.36D-01  1.09D+00  8.94D-01  8.99D-01  1.12D+00
                    CP:  1.21D+00  1.28D+00  1.19D+00  1.20D+00  1.19D+00
                    CP:  1.40D+00  1.34D+00  1.17D+00
 E= -1229.52782396843     Delta-E=       -0.000000000134 Rises=F Damp=F
 DIIS: error= 9.09D-08 at cycle  14 NSaved=  14.
 NSaved=14 IEnMin=12 EnMin= -1229.52782396848     IErMin=14 ErrMin= 9.09D-08
 ErrMax= 9.09D-08  0.00D+00 EMaxC= 1.00D-01 BMatC= 5.06D-12 BMatP= 5.80D-11
 IDIUse=1 WtCom= 1.00D+00 WtEn= 0.00D+00
 Coeff-Com:  0.182D-05-0.613D-05-0.238D-04-0.437D-04-0.944D-04-0.193D-04
 Coeff-Com:  0.126D-02 0.148D-02-0.584D-03-0.112D-01-0.454D-01-0.602D-01
 Coeff-Com:  0.155D+00 0.959D+00
 Coeff:      0.182D-05-0.613D-05-0.238D-04-0.437D-04-0.944D-04-0.193D-04
 Coeff:      0.126D-02 0.148D-02-0.584D-03-0.112D-01-0.454D-01-0.602D-01
 Coeff:      0.155D+00 0.959D+00
 Gap=     0.183 Goal=   None    Shift=    0.000
 Gap=     0.183 Goal=   None    Shift=    0.000
 RMSDP=4.04D-09 MaxDP=1.95D-07 DE=-1.34D-10 OVMax= 1.93D-06

 SCF Done:  E(ULC-wHPBE) =  -1229.52782397     A.U. after   15 cycles
            NFock= 15  Conv=0.40D-08     -V/T= 2.0052
 <Sx>= 0.0000 <Sy>= 0.0000 <Sz>= 0.0000 <S**2>=-0.0000 S=-0.0000
 <L.S>= 0.000000000000E+00
 KE= 1.223194590994D+03 PE=-8.186254543679D+03 EE= 3.067265731583D+03
 Annihilation of the first spin contaminant:
 S**2 before annihilation    -0.0000,   after    -0.0000
 Leave Link  502 at Mon Jan 20 23:20:04 2020, MaxMem=  6710886400 cpu:           21339.5 elap:            1335.8
 (Enter /opt/ohpc/pub/libs/gaussian/g16-A.03/sandybridge/g16/l801.exe)
 DoSCS=F DFT=T ScalE2(SS,OS)=  1.000000  1.000000
 ExpMin= 9.52D-02 ExpMax= 1.36D+04 ExpMxC= 4.63D+02 IAcc=3 IRadAn=         5 AccDes= 0.00D+00
 HarFok:  IExCor=  205 AccDes= 0.00D+00 IRadAn=         5 IDoV=-2 UseB2=F ITyADJ=14
 ICtDFT= 12500011 ScaDFX=  1.000000  1.000000  1.000000  1.000000
 GSVD:  LWork=       -1280 too small for GESVD, short by        5600 words or        5600 for optimal perf.
 Largest valence mixing into a core orbital is  4.97D-05
 Largest core mixing into a valence orbital is  1.72D-05
 Largest valence mixing into a core orbital is  4.97D-05
 Largest core mixing into a valence orbital is  1.72D-05
 Range of M.O.s used for correlation:    33  1100
 NBasis=  1100 NAE=   105 NBE=   105 NFC=    32 NFV=     0
 NROrb=   1068 NOA=    73 NOB=    73 NVA=   995 NVB=   995

 **** Warning!!: The largest alpha MO coefficient is  0.13723980D+03


 **** Warning!!: The largest beta MO coefficient is  0.13723980D+03

 Leave Link  801 at Mon Jan 20 23:20:05 2020, MaxMem=  6710886400 cpu:              10.1 elap:               0.7
 (Enter /opt/ohpc/pub/libs/gaussian/g16-A.03/sandybridge/g16/l914.exe)
 UHF ground state
 Two-electron integrals replicated using symmetry.
 MDV=  6710886400 DFT=T DoStab=F Mixed=T DoRPA=T DoScal=F NonHer=T
 Making orbital integer symmetry assigments:
 Orbital symmetries:
 Alpha Orbitals:
       Occupied  (A1) (B2) (B2) (A1) (A1) (B2) (A1) (B2) (A1) (A1)
                 (B2) (B2) (B2) (A1) (B2) (A1) (B2) (A1) (B2) (A1)
                 (A1) (B2) (A1) (A1) (B2) (B2) (A1) (B2) (B2) (A1)
                 (B2) (A1) (A1) (A1) (A1) (B2) (A1) (A1) (A1) (B2)
                 (B2) (A1) (B2) (A1) (B2) (B2) (A1) (B2) (A1) (A1)
                 (B2) (B2) (A1) (A1) (A1) (B2) (A1) (B2) (A1) (B2)
                 (A1) (A1) (A1) (B2) (A1) (B2) (A1) (B2) (B2) (A1)
                 (A1) (B2) (B1) (A1) (B2) (B2) (B1) (A1) (B2) (A1)
                 (A1) (B1) (B2) (A2) (B2) (B1) (A1) (B2) (A1) (A1)
                 (B2) (B1) (A1) (A2) (B2) (A1) (B1) (A2) (B1) (A2)
                 (A2) (B1) (A2) (B1) (A2)
       Virtual   (B1) (A2) (B1) (B1) (A2) (B1) (A2) (B1) (B1) (A2)
                 (B2) (A1) (A1) (B2) (A1) (A2) (B2) (A1) (A1) (B2)
                 (B2) (A1) (A1) (B2) (A2) (A1) (A1) (B1) (A1) (A1)
                 (B2) (B2) (A2) (A2) (B2) (A1) (A1) (B2) (B2) (A1)
                 (B2) (A1) (B1) (B2) (A1) (B1) (A2) (A1) (B2) (B2)
                 (A1) (B1) (A1) (A2) (B2) (A1) (B1) (B2) (B2) (A1)
                 (B2) (A2) (A1) (B1) (B2) (B1) (A1) (A2) (B2) (B2)
                 (A1) (B2) (A2) (A1) (B1) (A1) (A1) (A1) (A1) (A2)
                 (B1) (B2) (B2) (A1) (B1) (A1) (A2) (A1) (B1) (A1)
                 (A1) (B1) (A2) (B2) (B2) (A1) (B2) (B1) (A1) (B2)
                 (B2) (A2) (A1) (B1) (B2) (A1) (B2) (A1) (B2) (A1)
                 (B2) (A2) (B2) (A1) (B2) (A1) (B2) (B1) (B2) (A1)
                 (A1) (B2) (A2) (B1) (A1) (A1) (A2) (B2) (A2) (B1)
                 (B2) (A1) (A1) (B1) (B2) (B2) (B2) (A2) (B2) (A1)
                 (A1) (B2) (B1) (B2) (A1) (B2) (A2) (A1) (B2) (A2)
                 (B2) (A1) (B2) (B1) (A1) (A1) (B2) (B1) (A1) (A1)
                 (B2) (B2) (A1) (B1) (B2) (A1) (B2) (A2) (A1) (B2)
                 (B2) (B1) (A2) (B2) (A1) (B2) (B2) (A1) (B1) (B2)
                 (A1) (B2) (B1) (B2) (A2) (A1) (A1) (A1) (B2) (A1)
                 (B2) (B2) (A1) (B2) (B2) (B1) (B2) (A1) (A2) (B2)
                 (A1) (A2) (B1) (A1) (B2) (B1) (A1) (A2) (A1) (B2)
                 (A1) (B2) (A1) (A2) (A1) (B2) (B1) (B2) (B1) (A1)
                 (A1) (A1) (A2) (B2) (B2) (A1) (A1) (A1) (B2) (B1)
                 (A1) (A2) (A1) (B2) (A1) (B2) (A1) (B2) (B1) (A1)
                 (B2) (B2) (B1) (A1) (A2) (B2) (A1) (A1) (B2) (B1)
                 (A1) (A2) (A2) (A1) (B2) (B1) (B2) (B2) (A1) (B1)
                 (A2) (A1) (B2) (A2) (B2) (A1) (A1) (B2) (A2) (A1)
                 (B1) (A2) (A1) (B2) (A1) (B1) (B2) (A1) (B2) (A1)
                 (A2) (B1) (A2) (B2) (A1) (B1) (B1) (A1) (B2) (B1)
                 (A2) (A1) (B2) (B2) (A1) (B2) (A2) (B1) (B1) (A1)
                 (A1) (B2) (A1) (A2) (B2) (B2) (A1) (A2) (A1) (B1)
                 (B2) (A1) (A1) (A1) (B2) (B2) (B1) (A2) (B1) (B2)
                 (B2) (B2) (A2) (B1) (A1) (A1) (A1) (B2) (A2) (B2)
                 (B1) (B2) (A2) (B2) (B1) (A1) (B2) (A1) (A1) (B2)
                 (B1) (B2) (A2) (A1) (A2) (B2) (B1) (A1) (B2) (A1)
                 (A1) (A2) (B2) (A2) (B1) (B2) (A1) (B1) (B2) (A1)
                 (A1) (B2) (A2) (B2) (B1) (A1) (A1) (A2) (B1) (B2)
                 (A1) (B2) (A1) (A2) (A2) (B2) (B2) (B2) (A1) (A2)
                 (B1) (A1) (A2) (A1) (B1) (A1) (B2) (B2) (A2) (A1)
                 (B1) (B1) (A2) (B2) (B1) (A1) (A1) (B2) (A1) (A2)
                 (B2) (B2) (B1) (B2) (A2) (A1) (B2) (B1) (B2) (B2)
                 (A2) (B1) (A1) (B2) (A1) (B1) (A2) (B2) (A2) (A2)
                 (B1) (A2) (B1) (A2) (A1) (A2) (A1) (A2) (A1) (B1)
                 (B2) (B1) (A1) (B2) (B1) (A2) (B1) (B2) (A2) (A1)
                 (B2) (B1) (A1) (B2) (A1) (A2) (A1) (A1) (B2) (A1)
                 (B1) (B2) (A2) (A1) (A1) (A1) (B2) (A1) (B2) (A1)
                 (B2) (A1) (A1) (B2) (A1) (A2) (B2) (A1) (B2) (A2)
                 (B2) (A1) (B2) (A1) (B2) (A1) (A2) (B2) (A1) (A2)
                 (A1) (B2) (B2) (B1) (A1) (B2) (A1) (B2) (A1) (B2)
                 (B1) (A1) (B2) (A2) (A1) (B1) (A2) (A1) (B2) (B1)
                 (A1) (B1) (B2) (A1) (A1) (B2) (A1) (B1) (A2) (B2)
                 (A1) (B2) (B1) (A1) (B2) (B1) (A1) (B2) (A1) (B2)
                 (A1) (A1) (B2) (B2) (A1) (B1) (B2) (A1) (B1) (B2)
                 (A2) (A1) (B1) (A2) (A1) (B2) (B1) (B2) (A1) (B1)
                 (A1) (A2) (B2) (A1) (B1) (A2) (B1) (B2) (B1) (B2)
                 (A1) (A2) (A1) (B1) (B2) (B2) (A2) (B1) (A1) (A1)
                 (B2) (A2) (A1) (B1) (A2) (B1) (A2) (B2) (B1) (A1)
                 (B2) (B1) (B2) (A1) (A1) (A1) (B2) (B1) (B2) (B2)
                 (A1) (A2) (A1) (B1) (A1) (A2) (B2) (A2) (B1) (A2)
                 (A1) (B2) (B2) (A1) (A1) (A2) (B2) (B1) (A1) (B2)
                 (A1) (B1) (A2) (B2) (B1) (B2) (A2) (B1) (A1) (A1)
                 (B2) (B1) (B2) (A1) (B1) (B2) (B2) (B2) (A2) (B1)
                 (A1) (A1) (B2) (B1) (A1) (B1) (A2) (B1) (B2) (A2)
                 (B2) (A1) (B2) (B1) (A1) (A2) (B2) (A2) (B1) (A2)
                 (B2) (B1) (A1) (A1) (A1) (B1) (A2) (A1) (A1) (B2)
                 (A1) (B2) (A1) (B1) (A1) (A2) (B2) (B2) (A2) (B1)
                 (B1) (A1) (A1) (B1) (B2) (A2) (A1) (A1) (B2) (B1)
                 (A2) (B2) (A1) (A2) (B2) (B1) (A1) (A2) (B2) (B1)
                 (A2) (B2) (B1) (A2) (B1) (B2) (A1) (A1) (A2) (B1)
                 (B2) (A1) (B2) (A1) (A2) (B1) (B2) (A2) (A1) (A1)
                 (A1) (B2) (B1) (A1) (B2) (A2) (B2) (B2) (A1) (B2)
                 (A2) (B2) (B1) (A1) (A2) (B2) (A1) (B1) (B2) (A2)
                 (B1) (A1) (B1) (B2) (A2) (A1) (B2) (A2) (B2) (A1)
                 (A2) (B1) (A1) (B2) (B1) (A1) (A2) (B2) (B1) (A2)
                 (A1) (B2) (A2) (B1) (B2) (A1) (B1) (A2) (B2) (A1)
                 (A2) (A1) (B2) (B1) (A1) (B1) (B2) (A2) (A1) (B2)
                 (A2) (A2) (B2) (A2) (A1) (B2) (A1) (A2) (A2) (A1)
                 (B1) (B2) (A2) (A1) (B2) (B2) (B2) (A1) (B2) (A1)
                 (B2) (B1) (A1) (A2) (A1) (B2) (A1) (A2) (B2) (A1)
                 (B2) (B2) (A2) (A1) (B1) (A1) (A1) (B2) (B2) (B2)
                 (A1) (B2) (A1) (B2) (B2) (A1) (A1) (A1) (B1) (B2)
                 (A1) (A2) (A2) (B2) (B1) (B2) (B2) (B1) (A1) (B2)
                 (B1) (A2) (B2) (A2) (A1) (B1) (B2) (A1) (A2) (B1)
[...]
    24  H   -0.000000   0.000000  -0.000000   0.000000  -0.000000  -0.000000
    25  C   -0.000000   0.000000  -0.000000   0.000000  -0.000000   0.000000
    26  C    0.000000  -0.000000   0.000000  -0.000000   0.000000   0.000000
    27  C   -0.000000   0.000000  -0.000000   0.000000   0.000000   0.000000
    28  C    0.000000  -0.000000   0.000000  -0.000000   0.000000  -0.000000
    29  H    0.000000  -0.000000   0.000000  -0.000000   0.000000  -0.000000
    30  H   -0.000000   0.000000  -0.000000   0.000000  -0.000000   0.000000
    31  C   -0.000000   0.000000  -0.000000   0.000000  -0.000000   0.000000
    32  C   -0.000000   0.000000  -0.000000   0.000000  -0.000000   0.000000
    33  C    0.000000  -0.000000   0.000000  -0.000000   0.000000  -0.000000
    34  C    0.000000  -0.000000   0.000000  -0.000000   0.000000  -0.000000
    35  H   -0.000000   0.000000  -0.000000   0.000000  -0.000000   0.000000
    36  H    0.000000  -0.000000   0.000000  -0.000000   0.000000  -0.000000
    37  C    0.000000  -0.000000   0.000000  -0.000000   0.000000  -0.000000
    38  C   -0.000000   0.000000  -0.000000   0.000000  -0.000000   0.000000
    39  C    0.000000  -0.000000   0.000000  -0.000000   0.000000  -0.000000
    40  C   -0.000000   0.000000  -0.000000   0.000000  -0.000000   0.000000
    41  H    0.000000  -0.000000   0.000000  -0.000000   0.000000  -0.000000
    42  H   -0.000000   0.000000  -0.000000   0.000000  -0.000000   0.000000
    43  C    0.000000   0.000000  -0.000000  -0.000000   0.000000  -0.000000
    44  C   -0.000000  -0.000000   0.000000   0.000000  -0.000000   0.000000
    45  C    0.000000   0.000000  -0.000000  -0.000000   0.000000  -0.000000
    46  C   -0.000000  -0.000000   0.000000   0.000000  -0.000000   0.000000
    47  H    0.000000   0.000000  -0.000000  -0.000000   0.000000  -0.000000
    48  H   -0.000000  -0.000000  -0.000000   0.000000  -0.000000   0.000000
    49  H    0.000000  -0.000000  -0.000000  -0.000000   0.000000  -0.000000
    50  H   -0.000000  -0.000000   0.000000   0.000000  -0.000000   0.000000
              43         44         45         46         47         48
     1  C    0.000000  -0.000000   0.000000  -0.000000   0.000000   0.000000
     2  C    0.000000  -0.000000   0.000000  -0.000000   0.000000   0.000000
     3  C   -0.000000   0.000000  -0.000000   0.000000  -0.000000  -0.000000
     4  C   -0.000000   0.000000   0.000000   0.000000  -0.000000  -0.000000
     5  C    0.000000  -0.000000   0.000000  -0.000000   0.000000   0.000000
     6  C   -0.000000   0.000000  -0.000000   0.000000  -0.000000  -0.000000
     7  C    0.000000  -0.000000   0.000000   0.000000  -0.000000  -0.000000
     8  C    0.000000   0.000000   0.000000  -0.000000  -0.000000   0.000000
     9  C    0.000000  -0.000000   0.000000  -0.000000   0.000000   0.000000
    10  C    0.000000   0.000000  -0.000000   0.000000   0.000000   0.000000
    11  C   -0.000000   0.000000  -0.000000   0.000000  -0.000000  -0.000000
    12  H    0.000000  -0.000000   0.000000  -0.000000   0.000000  -0.000000
    13  C   -0.000000   0.000000  -0.000000   0.000000  -0.000000  -0.000000
    14  C    0.000000  -0.000000   0.000000  -0.000000   0.000000   0.000000
    15  C   -0.000000   0.000000  -0.000000   0.000000  -0.000000  -0.000000
    16  C   -0.000000   0.000000  -0.000000   0.000000  -0.000000  -0.000000
    17  C    0.000000  -0.000000   0.000000  -0.000000   0.000000   0.000000
    18  H    0.000000  -0.000000   0.000000   0.000000   0.000000   0.000000
    19  H    0.000000   0.000000  -0.000000   0.000000  -0.000000   0.000000
    20  H    0.000000  -0.000000   0.000000  -0.000000   0.000000  -0.000000
    21  H   -0.000000   0.000000  -0.000000   0.000000  -0.000000   0.000000
    22  H   -0.000000  -0.000000   0.000000   0.000000  -0.000000  -0.000000
    23  H   -0.000000   0.000000  -0.000000   0.000000   0.000000   0.000000
    24  H    0.000000   0.000000  -0.000000  -0.000000  -0.000000   0.000000
    25  C    0.000000  -0.000000  -0.000000   0.000000   0.000000   0.000000
    26  C   -0.000000   0.000000  -0.000000   0.000000  -0.000000  -0.000000
    27  C    0.000000  -0.000000   0.000000  -0.000000   0.000000  -0.000000
    28  C    0.000000  -0.000000  -0.000000   0.000000  -0.000000  -0.000000
    29  H   -0.000000   0.000000  -0.000000  -0.000000   0.000000   0.000000
    30  H   -0.000000  -0.000000   0.000000  -0.000000  -0.000000  -0.000000
    31  C    0.000000  -0.000000   0.000000  -0.000000   0.000000   0.000000
    32  C   -0.000000  -0.000000   0.000000   0.000000  -0.000000   0.000000
    33  C    0.000000   0.000000  -0.000000  -0.000000   0.000000  -0.000000
    34  C   -0.000000   0.000000  -0.000000   0.000000  -0.000000  -0.000000
    35  H    0.000000  -0.000000   0.000000  -0.000000   0.000000   0.000000
    36  H   -0.000000   0.000000  -0.000000   0.000000  -0.000000  -0.000000
    37  C    0.000000  -0.000000   0.000000  -0.000000   0.000000  -0.000000
    38  C    0.000000  -0.000000   0.000000  -0.000000   0.000000  -0.000000
    39  C   -0.000000   0.000000  -0.000000   0.000000  -0.000000  -0.000000
    40  C   -0.000000   0.000000  -0.000000   0.000000  -0.000000   0.000000
    41  H    0.000000  -0.000000   0.000000  -0.000000   0.000000  -0.000000
    42  H   -0.000000   0.000000  -0.000000   0.000000  -0.000000   0.000000
    43  C   -0.000000   0.000000  -0.000000   0.000000  -0.000000   0.000000
    44  C    0.000000  -0.000000   0.000000  -0.000000   0.000000  -0.000000
    45  C   -0.000000   0.000000  -0.000000   0.000000  -0.000000   0.000000
    46  C    0.000000  -0.000000   0.000000  -0.000000   0.000000  -0.000000
    47  H   -0.000000   0.000000  -0.000000   0.000000  -0.000000   0.000000
    48  H    0.000000  -0.000000   0.000000  -0.000000   0.000000  -0.000000
    49  H   -0.000000   0.000000  -0.000000   0.000000  -0.000000   0.000000
    50  H    0.000000  -0.000000   0.000000  -0.000000   0.000000  -0.000000
              49         50
     1  C   -0.000000  -0.000000
     2  C   -0.000000  -0.000000
     3  C    0.000000   0.000000
     4  C    0.000000  -0.000000
     5  C   -0.000000  -0.000000
     6  C    0.000000   0.000000
     7  C    0.000000   0.000000
     8  C   -0.000000  -0.000000
     9  C   -0.000000  -0.000000
    10  C   -0.000000  -0.000000
    11  C    0.000000   0.000000
    12  H    0.000000  -0.000000
    13  C    0.000000   0.000000
    14  C   -0.000000  -0.000000
    15  C    0.000000   0.000000
    16  C    0.000000   0.000000
    17  C   -0.000000  -0.000000
    18  H    0.000000  -0.000000
    19  H    0.000000   0.000000
    20  H    0.000000   0.000000
    21  H   -0.000000   0.000000
    22  H    0.000000  -0.000000
    23  H   -0.000000   0.000000
    24  H   -0.000000  -0.000000
    25  C   -0.000000  -0.000000
    26  C   -0.000000   0.000000
    27  C   -0.000000  -0.000000
    28  C    0.000000   0.000000
    29  H   -0.000000  -0.000000
    30  H    0.000000   0.000000
    31  C   -0.000000  -0.000000
    32  C   -0.000000   0.000000
    33  C    0.000000  -0.000000
    34  C    0.000000   0.000000
    35  H   -0.000000  -0.000000
    36  H    0.000000   0.000000
    37  C    0.000000  -0.000000
    38  C   -0.000000  -0.000000
    39  C   -0.000000   0.000000
    40  C   -0.000000   0.000000
    41  H    0.000000  -0.000000
    42  H   -0.000000   0.000000
    43  C   -0.000000   0.000000
    44  C    0.000000  -0.000000
    45  C   -0.000000   0.000000
    46  C    0.000000  -0.000000
    47  H   -0.000000   0.000000
    48  H    0.000000  -0.000000
    49  H   -0.000000   0.000000
    50  H    0.000000  -0.000000
 Mulliken charges and spin densities:
               1          2
     1  C   -0.102745   0.000000
     2  C   -0.170079  -0.000000
     3  C    0.060482   0.000000
     4  C   -0.013738  -0.000000
     5  C    0.192066   0.000000
     6  C   -0.188685  -0.000000
     7  C    0.215257   0.000000
     8  C   -0.013738  -0.000000
     9  C    0.060482   0.000000
    10  C    0.215257   0.000000
    11  C   -0.170079  -0.000000
    12  H    0.077999  -0.000000
    13  C   -0.102745   0.000000
    14  C   -0.188685  -0.000000
    15  C    0.192066   0.000000
    16  C   -0.206088  -0.000000
    17  C   -0.206088  -0.000000
    18  H    0.095320  -0.000000
    19  H    0.095320  -0.000000
    20  H    0.103296  -0.000000
    21  H    0.077999  -0.000000
    22  H    0.099642  -0.000000
    23  H    0.103296  -0.000000
    24  H    0.099642  -0.000000
    25  C   -0.367566  -0.000000
    26  C    0.292743   0.000000
    27  C    0.292743   0.000000
    28  C   -0.367566  -0.000000
    29  H    0.077014  -0.000000
    30  H    0.077014  -0.000000
    31  C   -0.392255  -0.000000
    32  C    0.287105  -0.000000
    33  C    0.287105  -0.000000
    34  C   -0.392255  -0.000000
    35  H    0.087843  -0.000000
    36  H    0.087843  -0.000000
    37  C   -0.358854   0.000000
    38  C    0.235282  -0.000000
    39  C    0.235282  -0.000000
    40  C   -0.358854   0.000000
    41  H    0.088860   0.000000
    42  H    0.088860   0.000000
    43  C   -0.231403  -0.000000
    44  C   -0.086835   0.000000
    45  C   -0.086835   0.000000
    46  C   -0.231403  -0.000000
    47  H    0.098507  -0.000000
    48  H    0.106837  -0.000000
    49  H    0.106837  -0.000000
    50  H    0.098507  -0.000000
 Sum of Mulliken charges =  -0.00000  -0.00000
 Mulliken charges and spin densities with hydrogens summed into heavy atoms:
               1          2
     1  C    0.000550   0.000000
     2  C   -0.092081  -0.000000
     3  C    0.060482   0.000000
     4  C   -0.013738  -0.000000
     5  C    0.192066   0.000000
     6  C   -0.089043  -0.000000
     7  C    0.215257   0.000000
     8  C   -0.013738  -0.000000
     9  C    0.060482   0.000000
    10  C    0.215257   0.000000
    11  C   -0.092081  -0.000000
    13  C    0.000550   0.000000
    14  C   -0.089043  -0.000000
    15  C    0.192066   0.000000
    16  C   -0.110768  -0.000000
    17  C   -0.110768  -0.000000
    25  C   -0.290553  -0.000000
    26  C    0.292743   0.000000
    27  C    0.292743   0.000000
    28  C   -0.290553  -0.000000
    31  C   -0.304413  -0.000000
    32  C    0.287105  -0.000000
    33  C    0.287105  -0.000000
    34  C   -0.304413  -0.000000
    37  C   -0.269994   0.000000
    38  C    0.235282  -0.000000
    39  C    0.235282  -0.000000
    40  C   -0.269994   0.000000
    43  C   -0.132896  -0.000000
    44  C    0.020002   0.000000
    45  C    0.020002   0.000000
    46  C   -0.132896  -0.000000
 Electronic spatial extent (au):  <R**2>=          19323.6615
 Charge=             -0.0000 electrons
 Dipole moment (field-independent basis, Debye):
    X=              0.0000    Y=              0.0000    Z=              0.0411  Tot=              0.0411
 Quadrupole moment (field-independent basis, Debye-Ang):
   XX=           -194.1942   YY=           -158.4669   ZZ=           -157.0937
   XY=              0.0000   XZ=              0.0000   YZ=             -0.0000
 Traceless Quadrupole moment (field-independent basis, Debye-Ang):
   XX=            -24.2759   YY=             11.4514   ZZ=             12.8245
   XY=              0.0000   XZ=              0.0000   YZ=             -0.0000
 Octapole moment (field-independent basis, Debye-Ang**2):
  XXX=              0.0000  YYY=             -0.0000  ZZZ=              7.0479  XYY=              0.0000
  XXY=             -0.0000  XXZ=             -2.1619  XZZ=              0.0000  YZZ=             -0.0000
  YYZ=             -3.5254  XYZ=             -0.0000
 Hexadecapole moment (field-independent basis, Debye-Ang**3):
 XXXX=           -222.9565 YYYY=          -3199.4215 ZZZZ=         -21039.0528 XXXY=             -0.0000
 XXXZ=             -0.0000 YYYX=             -0.0000 YYYZ=              0.0000 ZZZX=              0.0000
 ZZZY=              0.0000 XXYY=           -697.9658 XXZZ=          -4381.7226 YYZZ=          -4073.8240
 XXYZ=              0.0000 YYXZ=             -0.0000 ZZXY=             -0.0000
 N-N= 2.666266397133D+03 E-N=-8.186254532043D+03  KE= 1.223194590994D+03
 Symmetry A1   KE= 6.028492705376D+02
 Symmetry A2   KE= 1.599431211551D+01
 Symmetry B1   KE= 1.885571222981D+01
 Symmetry B2   KE= 5.854952961110D+02
 Symmetry A1   SP=-6.565518941421D-16
 Symmetry A2   SP=-1.244433696684D-15
 Symmetry B1   SP=-9.916958329983D-15
 Symmetry B2   SP=-3.652674001105D-14
 Leave Link  601 at Tue Jan 21 01:09:11 2020, MaxMem=  6710886400 cpu:             140.8 elap:               9.0
 (Enter /opt/ohpc/pub/libs/gaussian/g16-A.03/sandybridge/g16/l9999.exe)
 Electronic transition elements 
                 1             2             3             4             5 
      1  -0.122949D+04 -0.122945D+04 -0.122944D+04 -0.122943D+04 -0.122943D+04
      2   0.000000D+00  0.000000D+00  0.000000D+00  0.000000D+00  0.000000D+00
      3   0.000000D+00  0.000000D+00 -0.756823D+00  0.000000D+00  0.000000D+00
      4   0.000000D+00  0.000000D+00  0.000000D+00  0.000000D+00  0.000000D+00
      5   0.000000D+00  0.000000D+00  0.000000D+00  0.000000D+00  0.000000D+00
      6   0.000000D+00  0.000000D+00  0.683264D-01  0.000000D+00  0.000000D+00
      7   0.000000D+00  0.000000D+00  0.000000D+00  0.000000D+00  0.000000D+00
      8   0.000000D+00  0.000000D+00 -0.411695D+00  0.000000D+00  0.000000D+00
      9   0.000000D+00  0.000000D+00  0.000000D+00  0.000000D+00  0.000000D+00
     10   0.000000D+00  0.000000D+00  0.000000D+00  0.000000D+00  0.000000D+00
     11   0.000000D+00  0.000000D+00  0.000000D+00  0.000000D+00  0.000000D+00
     12   0.000000D+00  0.000000D+00  0.000000D+00  0.000000D+00  0.000000D+00
     13   0.000000D+00  0.000000D+00  0.000000D+00  0.000000D+00  0.000000D+00
     14   0.000000D+00  0.000000D+00  0.000000D+00  0.000000D+00  0.000000D+00
     15   0.000000D+00  0.000000D+00  0.000000D+00  0.000000D+00  0.000000D+00
     16   0.000000D+00  0.000000D+00  0.554052D+00  0.000000D+00  0.000000D+00
                 6             7             8             9            10 
      1  -0.122942D+04 -0.122941D+04 -0.122941D+04 -0.122940D+04 -0.122940D+04
      2   0.000000D+00  0.000000D+00  0.000000D+00  0.000000D+00  0.000000D+00
      3   0.000000D+00  0.000000D+00  0.000000D+00  0.000000D+00 -0.273129D+00
      4   0.000000D+00 -0.679443D+00  0.000000D+00  0.000000D+00  0.000000D+00
      5   0.000000D+00  0.000000D+00  0.000000D+00  0.000000D+00  0.000000D+00
      6   0.000000D+00  0.000000D+00  0.000000D+00  0.000000D+00  0.370986D-01
      7   0.000000D+00  0.764950D-01  0.000000D+00  0.000000D+00  0.000000D+00
      8   0.000000D+00  0.000000D+00  0.000000D+00  0.000000D+00 -0.152668D+01
      9   0.000000D+00  0.000000D+00  0.000000D+00  0.000000D+00  0.000000D+00
     10   0.000000D+00  0.000000D+00  0.000000D+00  0.000000D+00  0.000000D+00
     11   0.000000D+00 -0.365816D-02  0.000000D+00  0.000000D+00  0.000000D+00
     12   0.000000D+00 -0.154450D+00  0.000000D+00  0.000000D+00  0.000000D+00
     13   0.000000D+00  0.276364D+00  0.000000D+00  0.000000D+00  0.000000D+00
     14   0.000000D+00  0.000000D+00  0.000000D+00  0.000000D+00  0.000000D+00
     15   0.000000D+00  0.000000D+00  0.000000D+00  0.000000D+00  0.000000D+00
     16   0.000000D+00  0.000000D+00  0.000000D+00  0.000000D+00  0.452331D+00
                11            12            13            14            15 
      1  -0.122940D+04 -0.122940D+04 -0.122940D+04 -0.122939D+04 -0.122939D+04
      2   0.000000D+00  0.000000D+00  0.000000D+00  0.000000D+00  0.000000D+00
      3   0.000000D+00  0.000000D+00  0.000000D+00  0.000000D+00  0.000000D+00
      4   0.000000D+00  0.000000D+00  0.381638D+01  0.763481D+00  0.000000D+00
      5   0.000000D+00  0.000000D+00  0.000000D+00  0.000000D+00  0.000000D+00
      6   0.000000D+00  0.000000D+00  0.000000D+00  0.000000D+00  0.000000D+00
      7   0.000000D+00  0.000000D+00 -0.502988D+00 -0.102571D+00  0.000000D+00
      8   0.000000D+00  0.000000D+00  0.000000D+00  0.000000D+00  0.000000D+00
      9   0.000000D+00  0.000000D+00  0.000000D+00  0.000000D+00  0.000000D+00
     10   0.000000D+00  0.000000D+00  0.000000D+00  0.000000D+00  0.000000D+00
     11   0.000000D+00  0.000000D+00 -0.828609D-03 -0.541236D-02  0.000000D+00
     12   0.000000D+00  0.000000D+00  0.787510D+00  0.125523D+00  0.000000D+00
     13   0.000000D+00  0.000000D+00 -0.106988D+01 -0.353675D+00  0.000000D+00
     14   0.000000D+00  0.000000D+00  0.000000D+00  0.000000D+00  0.000000D+00
     15   0.000000D+00  0.000000D+00  0.000000D+00  0.000000D+00  0.000000D+00
     16   0.000000D+00  0.000000D+00  0.000000D+00  0.000000D+00  0.000000D+00
                16            17            18            19            20 
      1  -0.122939D+04 -0.122939D+04 -0.122939D+04 -0.122938D+04 -0.122938D+04
      2   0.000000D+00  0.000000D+00  0.000000D+00  0.000000D+00  0.000000D+00
      3   0.000000D+00 -0.173061D+00  0.000000D+00 -0.957152D+00  0.000000D+00
      4   0.000000D+00  0.000000D+00  0.000000D+00  0.000000D+00  0.000000D+00
      5   0.000000D+00  0.000000D+00  0.000000D+00  0.000000D+00  0.000000D+00
      6   0.000000D+00  0.245287D-01  0.000000D+00  0.140048D+00  0.000000D+00
      7   0.000000D+00  0.000000D+00  0.000000D+00  0.000000D+00  0.000000D+00
      8   0.000000D+00 -0.794270D+00  0.000000D+00  0.163691D+01  0.000000D+00
      9   0.000000D+00  0.000000D+00  0.000000D+00  0.000000D+00  0.000000D+00
     10   0.000000D+00  0.000000D+00  0.000000D+00  0.000000D+00  0.000000D+00
     11   0.000000D+00  0.000000D+00  0.000000D+00  0.000000D+00  0.000000D+00
     12   0.000000D+00  0.000000D+00  0.000000D+00  0.000000D+00  0.000000D+00
     13   0.000000D+00  0.000000D+00  0.000000D+00  0.000000D+00  0.000000D+00
     14   0.000000D+00  0.000000D+00  0.000000D+00  0.000000D+00  0.000000D+00
     15   0.000000D+00  0.000000D+00  0.000000D+00  0.000000D+00  0.000000D+00
     16   0.000000D+00  0.852008D-01  0.000000D+00 -0.152154D+01  0.000000D+00

 Test job not archived.
 1\1\GINC-GNODE017\SP\ULC-wHPBE TD-FC\def2TZVP\C32H18\QAI222\21-Jan-202
 0\0\\#P uLC-wHPBE/def2tzvp iop(3/107=0169000000, 3/108=0169000000) td(
 NStates=20)\\H18 C32\\0,1\C,0,0.,3.52833,-4.09333\C,0,0.,2.84706,-2.87
 4793\C,0,0.,1.45243,-2.813041\C,0,0.,0.721016,-4.031613\C,0,0.,1.41880
 1,-5.27257\C,0,0.,2.82419,-5.282468\C,0,0.,0.724762,-1.529966\C,0,0.,-
 0.721016,-4.031613\C,0,0.,-1.45243,-2.813041\C,0,0.,-0.724762,-1.52996
 6\C,0,0.,-2.84706,-2.874793\H,0,0.,-3.43543,-1.959325\C,0,0.,-3.52833,
 -4.09333\C,0,0.,-2.82419,-5.282468\C,0,0.,-1.418801,-5.27257\C,0,0.,-0
 .677765,-6.501668\C,0,0.,0.677765,-6.501668\H,0,0.,1.23509,-7.440028\H
 ,0,0.,-1.23509,-7.440028\H,0,0.,4.618757,-4.100168\H,0,0.,3.43543,-1.9
 59325\H,0,0.,3.347416,-6.240078\H,0,0.,-4.618757,-4.100168\H,0,0.,-3.3
 47416,-6.240078\C,0,0.,1.390017,-0.324039\C,0,0.,0.720377,0.929653\C,0
 ,0.,-0.720377,0.929653\C,0,0.,-1.390017,-0.324039\H,0,0.,2.478856,-0.2
 9609\H,0,0.,-2.478856,-0.29609\C,0,0.,1.40525,2.143991\C,0,0.,0.723963
 ,3.374791\C,0,0.,-0.723963,3.374791\C,0,0.,-1.40525,2.143991\H,0,0.,2.
 497635,2.142951\H,0,0.,-2.497635,2.142951\C,0,0.,1.404124,4.610721\C,0
 ,0.,0.723366,5.822284\C,0,0.,-0.723366,5.822284\C,0,0.,-1.404124,4.610
 721\H,0,0.,2.496541,4.611534\H,0,0.,-2.496541,4.611534\C,0,0.,1.407191
 ,7.082736\C,0,0.,0.714497,8.257987\C,0,0.,-0.714497,8.257987\C,0,0.,-1
 .407191,7.082736\H,0,0.,2.498673,7.080641\H,0,0.,1.24906,9.208513\H,0,
 0.,-1.24906,9.208513\H,0,0.,-2.498673,7.080641\\Version=EM64L-G16RevA.
 03\State=1-A1\HF=-1229.527824\S2=0.\S2-1=0.\S2A=0.\RMSD=4.040e-09\PG=C
 02V [SGV(C32H18)]\\@


 REALITY IS FOR PEOPLE WHO CAN'T FACE SCIENCE FICTION.
 Job cpu time:       1 days 11 hours  0 minutes 39.5 seconds.
 Elapsed time:       0 days  2 hours 11 minutes 33.4 seconds.
 File lengths (MBytes):  RWF=   8992 Int=      0 D2E=      0 Chk=    864 Scr=     32
 Normal termination of Gaussian 16 at Tue Jan 21 01:09:12 2020.
