 Entering Gaussian System, Link 0=g16
 Input=p5.gjf
 Output=p5.log
 Initial command:
 /opt/ohpc/pub/libs/gaussian/g16-A.03/sandybridge/g16/l1.exe "/scratch/qai222/pamol/pamol_fmt/us1/p5/Gau-46975.inp" -scrdir="/scratch/qai222/pamol/pamol_fmt/us1/p5/"
 Entering Link 1 = /opt/ohpc/pub/libs/gaussian/g16-A.03/sandybridge/g16/l1.exe PID=     46976.
  
 Copyright (c) 1988,1990,1992,1993,1995,1998,2003,2009,2016,
            Gaussian, Inc.  All Rights Reserved.
  
 This is part of the Gaussian(R) 16 program.  It is based on
 the Gaussian(R) 09 system (copyright 2009, Gaussian, Inc.),
 the Gaussian(R) 03 system (copyright 2003, Gaussian, Inc.),
 the Gaussian(R) 98 system (copyright 1998, Gaussian, Inc.),
 the Gaussian(R) 94 system (copyright 1995, Gaussian, Inc.),
 the Gaussian 92(TM) system (copyright 1992, Gaussian, Inc.),
 the Gaussian 90(TM) system (copyright 1990, Gaussian, Inc.),
 the Gaussian 88(TM) system (copyright 1988, Gaussian, Inc.),
 the Gaussian 86(TM) system (copyright 1986, Carnegie Mellon
 University), and the Gaussian 82(TM) system (copyright 1983,
 Carnegie Mellon University). Gaussian is a federally registered
 trademark of Gaussian, Inc.
  
 This software contains proprietary and confidential information,
 including trade secrets, belonging to Gaussian, Inc.
  
 This software is provided under written license and may be
 used, copied, transmitted, or stored only in accord with that
 written license.
  
 The following legend is applicable only to US Government
 contracts under FAR:
  
                    RESTRICTED RIGHTS LEGEND
  
 Use, reproduction and disclosure by the US Government is
 subject to restrictions as set forth in subparagraphs (a)
 and (c) of the Commercial Computer Software - Restricted
 Rights clause in FAR 52.227-19.
  
 Gaussian, Inc.
 340 Quinnipiac St., Bldg. 40, Wallingford CT 06492
  
  
 ---------------------------------------------------------------
 Warning -- This program may not be used in any manner that
 competes with the business of Gaussian, Inc. or will provide
 assistance to any competitor of Gaussian, Inc.  The licensee
 of this program is prohibited from giving any competitor of
 Gaussian, Inc. access to this program.  By using this program,
 the user acknowledges that Gaussian, Inc. is engaged in the
 business of creating and licensing software in the field of
 computational chemistry and represents and warrants to the
 licensee that it is not a competitor of Gaussian, Inc. and that
 it will not use this program in any manner prohibited above.
 ---------------------------------------------------------------
  

 Cite this work as:
 Gaussian 16, Revision A.03,
 M. J. Frisch, G. W. Trucks, H. B. Schlegel, G. E. Scuseria, 
 M. A. Robb, J. R. Cheeseman, G. Scalmani, V. Barone, 
 G. A. Petersson, H. Nakatsuji, X. Li, M. Caricato, A. V. Marenich, 
 J. Bloino, B. G. Janesko, R. Gomperts, B. Mennucci, H. P. Hratchian, 
 J. V. Ortiz, A. F. Izmaylov, J. L. Sonnenberg, D. Williams-Young, 
 F. Ding, F. Lipparini, F. Egidi, J. Goings, B. Peng, A. Petrone, 
 T. Henderson, D. Ranasinghe, V. G. Zakrzewski, J. Gao, N. Rega, 
 G. Zheng, W. Liang, M. Hada, M. Ehara, K. Toyota, R. Fukuda, 
 J. Hasegawa, M. Ishida, T. Nakajima, Y. Honda, O. Kitao, H. Nakai, 
 T. Vreven, K. Throssell, J. A. Montgomery, Jr., J. E. Peralta, 
 F. Ogliaro, M. J. Bearpark, J. J. Heyd, E. N. Brothers, K. N. Kudin, 
 V. N. Staroverov, T. A. Keith, R. Kobayashi, J. Normand, 
 K. Raghavachari, A. P. Rendell, J. C. Burant, S. S. Iyengar, 
 J. Tomasi, M. Cossi, J. M. Millam, M. Klene, C. Adamo, R. Cammi, 
 J. W. Ochterski, R. L. Martin, K. Morokuma, O. Farkas, 
 J. B. Foresman, and D. J. Fox, Gaussian, Inc., Wallingford CT, 2016.
 
 ******************************************
 Gaussian 16:  EM64L-G16RevA.03 25-Dec-2016
                 3-Feb-2020 
 ******************************************
 %mem=50GB
 %nproc=16
 Will use up to   16 processors via shared memory.
 ----------------------------------------------------------------------
 #P uLC-wHPBE/def2tzvp iop(3/107=0161000000, 3/108=0161000000) td(nstat
 es=20)
 ----------------------------------------------------------------------
 1/38=1,172=1/1;
 2/12=2,17=6,18=5,40=1/2;
 3/5=44,7=101,11=2,25=1,30=1,74=-71,107=161000000,108=161000000,116=2/1,2,3,8;
 4//1;
 5/5=2,38=5/2;
 8/6=1,10=1,108=20/1;
 9/41=20,42=1,70=2/14;
 6/7=2,8=2,9=2,10=2/1;
 99/5=1,9=1/99;
 Leave Link    1 at Mon Feb  3 19:11:29 2020, MaxMem=  6710886400 cpu:             187.9 elap:              12.5
 (Enter /opt/ohpc/pub/libs/gaussian/g16-A.03/sandybridge/g16/l101.exe)
 -------
 H20 C36
 -------
 Symbolic Z-matrix:
 Charge =  0 Multiplicity = 1
 C                     0.        3.52925  -5.2262 
 C                     0.        2.84799  -4.00733 
 C                     0.        1.45301  -3.94506 
 C                     0.        0.72107  -5.1638 
 C                     0.        1.41899  -6.40535 
 C                     0.        2.82482  -6.41541 
 C                     0.        0.72607  -2.66167 
 C                     0.       -0.72107  -5.1638 
 C                     0.       -1.45301  -3.94506 
 C                     0.       -0.72607  -2.66167 
 C                     0.       -2.84799  -4.00733 
 H                     0.       -3.43658  -3.09185 
 C                     0.       -3.52925  -5.2262 
 C                     0.       -2.82482  -6.41541 
 C                     0.       -1.41899  -6.40535 
 C                     0.       -0.67807  -7.6342 
 C                     0.        0.67807  -7.6342 
 H                     0.        4.61978  -5.23315 
 H                     0.        3.43658  -3.09185 
 H                     0.        3.34787  -7.37324 
 H                     0.       -4.61978  -5.23315 
 H                     0.       -3.34787  -7.37324 
 C                     0.        1.3912   -1.45669 
 C                     0.        0.72219  -0.20057 
 C                     0.       -0.72219  -0.20057 
 C                     0.       -1.3912   -1.45669 
 H                     0.        2.48017  -1.42894 
 H                     0.       -2.48017  -1.42894 
 C                     0.        1.40702   1.00985 
 C                     0.        0.72642   2.24689 
 C                     0.       -0.72642   2.24689 
 C                     0.       -1.40702   1.00985 
 H                     0.        2.49948   1.00836 
 H                     0.       -2.49948   1.00836 
 C                     0.        1.40637   3.47373 
 C                     0.        0.72585   4.69743 
 C                     0.       -0.72585   4.69743 
 C                     0.       -1.40637   3.47373 
 H                     0.        2.49877   3.47402 
 H                     0.       -2.49877   3.47402 
 C                     0.        1.4058    5.93825 
 C                     0.        0.72509   7.14677 
 C                     0.       -0.72509   7.14677 
 C                     0.       -1.4058    5.93825 
 H                     0.        2.49995   8.40737 
 H                     0.        2.49831   5.93924 
 C                     0.        1.40837   8.40918 
 C                     0.       -1.40837   8.40918 
 H                     0.       -2.49831   5.93924 
 C                     0.       -0.71536   9.58358 
 C                     0.        0.71536   9.58358 
 H                     0.       -2.49995   8.40737 
 H                     0.       -1.24943   10.53451 
 H                     0.        1.24943   10.53451 
 H                     0.       -1.2354   -8.57269 
 H                     0.        1.2354   -8.57269 
 
 ITRead=  0  0  0  0  0  0  0  0  0  0  0  0  0  0  0  0  0  0  0  0
 ITRead=  0  0  0  0  0  0  0  0  0  0  0  0  0  0  0  0  0  0  0  0
 ITRead=  0  0  0  0  0  0  0  0  0  0  0  0  0  0  0  0
 MicOpt= -1 -1 -1 -1 -1 -1 -1 -1 -1 -1 -1 -1 -1 -1 -1 -1 -1 -1 -1 -1
 MicOpt= -1 -1 -1 -1 -1 -1 -1 -1 -1 -1 -1 -1 -1 -1 -1 -1 -1 -1 -1 -1
 MicOpt= -1 -1 -1 -1 -1 -1 -1 -1 -1 -1 -1 -1 -1 -1 -1 -1
 NAtoms=     56 NQM=       56 NQMF=       0 NMMI=      0 NMMIF=      0
                NMic=       0 NMicF=      0.
                    Isotopes and Nuclear Properties:
 (Nuclear quadrupole moments (NQMom) in fm**2, nuclear magnetic moments (NMagM)
  in nuclear magnetons)

  Atom         1           2           3           4           5           6           7           8           9          10
 IAtWgt=          12          12          12          12          12          12          12          12          12          12
 AtmWgt=  12.0000000  12.0000000  12.0000000  12.0000000  12.0000000  12.0000000  12.0000000  12.0000000  12.0000000  12.0000000
 NucSpn=           0           0           0           0           0           0           0           0           0           0
 AtZEff=  -0.0000000  -0.0000000  -0.0000000  -0.0000000  -0.0000000  -0.0000000  -0.0000000  -0.0000000  -0.0000000  -0.0000000
 NQMom=    0.0000000   0.0000000   0.0000000   0.0000000   0.0000000   0.0000000   0.0000000   0.0000000   0.0000000   0.0000000
 NMagM=    0.0000000   0.0000000   0.0000000   0.0000000   0.0000000   0.0000000   0.0000000   0.0000000   0.0000000   0.0000000
 AtZNuc=   6.0000000   6.0000000   6.0000000   6.0000000   6.0000000   6.0000000   6.0000000   6.0000000   6.0000000   6.0000000

  Atom        11          12          13          14          15          16          17          18          19          20
 IAtWgt=          12           1          12          12          12          12          12           1           1           1
 AtmWgt=  12.0000000   1.0078250  12.0000000  12.0000000  12.0000000  12.0000000  12.0000000   1.0078250   1.0078250   1.0078250
 NucSpn=           0           1           0           0           0           0           0           1           1           1
 AtZEff=  -0.0000000  -0.0000000  -0.0000000  -0.0000000  -0.0000000  -0.0000000  -0.0000000  -0.0000000  -0.0000000  -0.0000000
 NQMom=    0.0000000   0.0000000   0.0000000   0.0000000   0.0000000   0.0000000   0.0000000   0.0000000   0.0000000   0.0000000
 NMagM=    0.0000000   2.7928460   0.0000000   0.0000000   0.0000000   0.0000000   0.0000000   2.7928460   2.7928460   2.7928460
 AtZNuc=   6.0000000   1.0000000   6.0000000   6.0000000   6.0000000   6.0000000   6.0000000   1.0000000   1.0000000   1.0000000

  Atom        21          22          23          24          25          26          27          28          29          30
 IAtWgt=           1           1          12          12          12          12           1           1          12          12
 AtmWgt=   1.0078250   1.0078250  12.0000000  12.0000000  12.0000000  12.0000000   1.0078250   1.0078250  12.0000000  12.0000000
 NucSpn=           1           1           0           0           0           0           1           1           0           0
 AtZEff=  -0.0000000  -0.0000000  -0.0000000  -0.0000000  -0.0000000  -0.0000000  -0.0000000  -0.0000000  -0.0000000  -0.0000000
 NQMom=    0.0000000   0.0000000   0.0000000   0.0000000   0.0000000   0.0000000   0.0000000   0.0000000   0.0000000   0.0000000
 NMagM=    2.7928460   2.7928460   0.0000000   0.0000000   0.0000000   0.0000000   2.7928460   2.7928460   0.0000000   0.0000000
 AtZNuc=   1.0000000   1.0000000   6.0000000   6.0000000   6.0000000   6.0000000   1.0000000   1.0000000   6.0000000   6.0000000

  Atom        31          32          33          34          35          36          37          38          39          40
 IAtWgt=          12          12           1           1          12          12          12          12           1           1
 AtmWgt=  12.0000000  12.0000000   1.0078250   1.0078250  12.0000000  12.0000000  12.0000000  12.0000000   1.0078250   1.0078250
 NucSpn=           0           0           1           1           0           0           0           0           1           1
 AtZEff=  -0.0000000  -0.0000000  -0.0000000  -0.0000000  -0.0000000  -0.0000000  -0.0000000  -0.0000000  -0.0000000  -0.0000000
 NQMom=    0.0000000   0.0000000   0.0000000   0.0000000   0.0000000   0.0000000   0.0000000   0.0000000   0.0000000   0.0000000
 NMagM=    0.0000000   0.0000000   2.7928460   2.7928460   0.0000000   0.0000000   0.0000000   0.0000000   2.7928460   2.7928460
 AtZNuc=   6.0000000   6.0000000   1.0000000   1.0000000   6.0000000   6.0000000   6.0000000   6.0000000   1.0000000   1.0000000

  Atom        41          42          43          44          45          46          47          48          49          50
 IAtWgt=          12          12          12          12           1           1          12          12           1          12
 AtmWgt=  12.0000000  12.0000000  12.0000000  12.0000000   1.0078250   1.0078250  12.0000000  12.0000000   1.0078250  12.0000000
 NucSpn=           0           0           0           0           1           1           0           0           1           0
 AtZEff=  -0.0000000  -0.0000000  -0.0000000  -0.0000000  -0.0000000  -0.0000000  -0.0000000  -0.0000000  -0.0000000  -0.0000000
 NQMom=    0.0000000   0.0000000   0.0000000   0.0000000   0.0000000   0.0000000   0.0000000   0.0000000   0.0000000   0.0000000
 NMagM=    0.0000000   0.0000000   0.0000000   0.0000000   2.7928460   2.7928460   0.0000000   0.0000000   2.7928460   0.0000000
 AtZNuc=   6.0000000   6.0000000   6.0000000   6.0000000   1.0000000   1.0000000   6.0000000   6.0000000   1.0000000   6.0000000

  Atom        51          52          53          54          55          56
 IAtWgt=          12           1           1           1           1           1
 AtmWgt=  12.0000000   1.0078250   1.0078250   1.0078250   1.0078250   1.0078250
 NucSpn=           0           1           1           1           1           1
 AtZEff=  -0.0000000  -0.0000000  -0.0000000  -0.0000000  -0.0000000  -0.0000000
 NQMom=    0.0000000   0.0000000   0.0000000   0.0000000   0.0000000   0.0000000
 NMagM=    0.0000000   2.7928460   2.7928460   2.7928460   2.7928460   2.7928460
 AtZNuc=   6.0000000   1.0000000   1.0000000   1.0000000   1.0000000   1.0000000
 Leave Link  101 at Mon Feb  3 19:11:29 2020, MaxMem=  6710886400 cpu:               2.8 elap:               0.2
 (Enter /opt/ohpc/pub/libs/gaussian/g16-A.03/sandybridge/g16/l202.exe)
 Stoichiometry    C36H20
 Framework group  C2V[SGV(C36H20)]
 Deg. of freedom    55
 Full point group                 C2V     NOp   4
 Largest Abelian subgroup         C2V     NOp   4
 Largest concise Abelian subgroup C2      NOp   2
                         Standard orientation:                         
 ---------------------------------------------------------------------
 Center     Atomic      Atomic             Coordinates (Angstroms)
 Number     Number       Type             X           Y           Z
 ---------------------------------------------------------------------
      1          6           0        0.000000    3.529252   -5.226204
      2          6           0        0.000000    2.847992   -4.007334
      3          6           0        0.000000    1.453012   -3.945056
      4          6           0        0.000000    0.721066   -5.163800
      5          6           0        0.000000    1.418993   -6.405345
      6          6           0        0.000000    2.824824   -6.415414
      7          6           0        0.000000    0.726073   -2.661671
      8          6           0       -0.000000   -0.721066   -5.163800
      9          6           0       -0.000000   -1.453012   -3.945056
     10          6           0       -0.000000   -0.726073   -2.661671
     11          6           0       -0.000000   -2.847992   -4.007334
     12          1           0        0.000000   -3.436577   -3.091850
     13          6           0       -0.000000   -3.529252   -5.226204
     14          6           0       -0.000000   -2.824824   -6.415414
     15          6           0       -0.000000   -1.418993   -6.405345
     16          6           0        0.000000   -0.678068   -7.634202
     17          6           0        0.000000    0.678068   -7.634202
     18          1           0        0.000000    4.619780   -5.233145
     19          1           0        0.000000    3.436577   -3.091850
     20          1           0        0.000000    3.347870   -7.373243
     21          1           0       -0.000000   -4.619780   -5.233145
     22          1           0       -0.000000   -3.347870   -7.373243
     23          6           0        0.000000    1.391198   -1.456686
     24          6           0        0.000000    0.722186   -0.200570
     25          6           0       -0.000000   -0.722186   -0.200570
     26          6           0       -0.000000   -1.391198   -1.456686
     27          1           0        0.000000    2.480171   -1.428937
     28          1           0       -0.000000   -2.480171   -1.428937
     29          6           0        0.000000    1.407016    1.009849
     30          6           0        0.000000    0.726417    2.246886
     31          6           0       -0.000000   -0.726417    2.246886
     32          6           0       -0.000000   -1.407016    1.009849
     33          1           0        0.000000    2.499479    1.008359
     34          1           0       -0.000000   -2.499479    1.008359
     35          6           0        0.000000    1.406374    3.473726
     36          6           0        0.000000    0.725850    4.697432
     37          6           0       -0.000000   -0.725850    4.697432
     38          6           0       -0.000000   -1.406374    3.473726
     39          1           0        0.000000    2.498767    3.474019
     40          1           0       -0.000000   -2.498767    3.474019
     41          6           0        0.000000    1.405798    5.938252
     42          6           0        0.000000    0.725086    7.146768
     43          6           0       -0.000000   -0.725086    7.146768
     44          6           0       -0.000000   -1.405798    5.938252
     45          1           0        0.000000    2.499954    8.407365
     46          1           0        0.000000    2.498305    5.939244
     47          6           0        0.000000    1.408370    8.409181
     48          6           0       -0.000000   -1.408370    8.409181
     49          1           0       -0.000000   -2.498305    5.939244
     50          6           0        0.000000   -0.715363    9.583582
     51          6           0        0.000000    0.715363    9.583582
     52          1           0       -0.000000   -2.499954    8.407365
     53          1           0        0.000000   -1.249426   10.534507
     54          1           0        0.000000    1.249426   10.534507
     55          1           0        0.000000   -1.235400   -8.572687
     56          1           0        0.000000    1.235400   -8.572687
 ---------------------------------------------------------------------
 Rotational constants (GHZ):           0.3954892           0.0377550           0.0344649
 Leave Link  202 at Mon Feb  3 19:11:29 2020, MaxMem=  6710886400 cpu:               0.5 elap:               0.2
 (Enter /opt/ohpc/pub/libs/gaussian/g16-A.03/sandybridge/g16/l301.exe)
 Standard basis: def2TZVP (5D, 7F)
 Ernie: Thresh=  0.10000D-02 Tol=  0.10000D-05 Strict=F.
 There are   500 symmetry adapted cartesian basis functions of A1  symmetry.
 There are   208 symmetry adapted cartesian basis functions of A2  symmetry.
 There are   208 symmetry adapted cartesian basis functions of B1  symmetry.
 There are   500 symmetry adapted cartesian basis functions of B2  symmetry.
 There are   428 symmetry adapted basis functions of A1  symmetry.
 There are   190 symmetry adapted basis functions of A2  symmetry.
 There are   190 symmetry adapted basis functions of B1  symmetry.
 There are   428 symmetry adapted basis functions of B2  symmetry.
  1236 basis functions,  1996 primitive gaussians,  1416 cartesian basis functions
   118 alpha electrons      118 beta electrons
       nuclear repulsion energy      3128.3847808882 Hartrees.
 IExCor=33909 DFT=T Ex+Corr=LC-wHPBE ExCW=0 ScaHFX=  1.000000
 ScaDFX=  1.000000  1.000000  1.000000  1.000000 ScalE2=  1.000000  1.000000
 IRadAn=      5 IRanWt=     -1 IRanGd=            0 ICorTp=0 IEmpDi=  4
 HFx  wShort=  0.000000 wLong=  0.161000 cFull=  0.000000 cShort=  0.000000 cLong=  1.000000
 DFx  wShort=  0.000000 wLong=  0.161000 cFull=  0.000000 cShort=  1.000000 cLong=  0.000000
 NAtoms=   56 NActive=   56 NUniq=   28 SFac= 4.00D+00 NAtFMM=   60 NAOKFM=F Big=F
 Integral buffers will be    131072 words long.
 Raffenetti 2 integral format.
 Two-electron integral symmetry is turned on.
 Leave Link  301 at Mon Feb  3 19:11:30 2020, MaxMem=  6710886400 cpu:               1.0 elap:               0.1
 (Enter /opt/ohpc/pub/libs/gaussian/g16-A.03/sandybridge/g16/l302.exe)
 NPDir=0 NMtPBC=     1 NCelOv=     1 NCel=       1 NClECP=     1 NCelD=      1
         NCelK=      1 NCelE2=     1 NClLst=     1 CellRange=     0.0.
 One-electron integrals computed using PRISM.
 One-electron integral symmetry used in STVInt
   4 Symmetry operations used in ECPInt.
 ECPInt:  NShTT=  113526 NPrTT=  354072 LenC2=   77461 LenP2D=  163745.
 LDataN:  DoStor=T MaxTD1= 6 Len=  172
 NBasis=  1236 RedAO= T EigKep=  1.41D-06  NBF=   428   190   190   428
 NBsUse=  1236 1.00D-06 EigRej= -1.00D+00 NBFU=   428   190   190   428
 Precomputing XC quadrature grid using
 IXCGrd= 4 IRadAn=           5 IRanWt=          -1 IRanGd=           0 AccXCQ= 0.00D+00.
 Generated NRdTot=       0 NPtTot=           0 NUsed=           0 NTot=          32
 NSgBfM=  1316  1310  1310  1310  1316 MxSgAt=    56 MxSgA2=    56.
 Leave Link  302 at Mon Feb  3 19:11:32 2020, MaxMem=  6710886400 cpu:              38.2 elap:               2.4
 (Enter /opt/ohpc/pub/libs/gaussian/g16-A.03/sandybridge/g16/l303.exe)
 DipDrv:  MaxL=1.
 Leave Link  303 at Mon Feb  3 19:11:32 2020, MaxMem=  6710886400 cpu:               4.8 elap:               0.4
 (Enter /opt/ohpc/pub/libs/gaussian/g16-A.03/sandybridge/g16/l308.exe)
 Leave Link  308 at Mon Feb  3 19:11:34 2020, MaxMem=  6710886400 cpu:               8.6 elap:               0.6
 (Enter /opt/ohpc/pub/libs/gaussian/g16-A.03/sandybridge/g16/l401.exe)
 ExpMin= 9.52D-02 ExpMax= 1.36D+04 ExpMxC= 4.63D+02 IAcc=3 IRadAn=         5 AccDes= 0.00D+00
 Harris functional with IExCor=33909 and IRadAn=       5 diagonalized for initial guess.
 HarFok:  IExCor=33909 AccDes= 0.00D+00 IRadAn=         5 IDoV= 1 UseB2=F ITyADJ=14
 ICtDFT=  3500011 ScaDFX=  1.000000  1.000000  1.000000  1.000000
 FoFCou: FMM=F IPFlag=           0 FMFlag=      100000 FMFlg1=           0
         NFxFlg=           0 DoJE=T BraDBF=F KetDBF=T FulRan=T
         wScrn=  0.000000 ICntrl=       500 IOpCl=  0 I1Cent=   200000004 NGrid=           0
         NMat0=    1 NMatS0=      1 NMatT0=    0 NMatD0=    1 NMtDS0=    0 NMtDT0=    0
 Petite list used in FoFCou.
 Harris En= -1362.72423076254    
 JPrj=0 DoOrth=F DoCkMO=F.
 Initial guess orbital symmetries:
 Alpha Orbitals:
       Occupied  (B2) (A1) (A1) (B2) (A1) (B2) (A1) (B2) (B2) (A1)
                 (A1) (B2) (B2) (A1) (B2) (A1) (B2) (A1) (B2) (A1)
                 (A1) (B2) (A1) (B2) (A1) (A1) (B2) (B2) (A1) (B2)
                 (B2) (A1) (A1) (B2) (A1) (B2) (A1) (A1) (A1) (B2)
                 (A1) (A1) (A1) (A1) (B2) (B2) (A1) (B2) (B2) (A1)
                 (B2) (A1) (B2) (B2) (A1) (B2) (A1) (A1) (B2) (A1)
                 (A1) (B2) (A1) (A1) (B2) (A1) (B2) (A1) (A1) (B2)
                 (A1) (A1) (A1) (B2) (A1) (B2) (B2) (A1) (A1) (B2)
                 (B2) (A1) (A1) (B2) (B2) (A1) (B2) (A1) (B2) (B1)
                 (B1) (B2) (B2) (A1) (B1) (B2) (A1) (B2) (A1) (A2)
                 (B1) (A1) (B2) (B1) (A1) (A1) (B1) (A2) (B1) (A2)
                 (A2) (B1) (A2) (B1) (A2) (A2) (B1) (A2)
       Virtual   (B1) (A2) (B1) (B1) (A2) (B1) (A2) (B1) (B1) (A2)
                 (B1) (A2) (A2) (B2) (A1) (A1) (B2) (A1) (B1) (A2)
                 (A1) (B2) (A1) (A1) (B2) (A2) (B2) (A1) (A1) (B2)
                 (A2) (A1) (A1) (B2) (A1) (B2) (A1) (B2) (A1) (B2)
                 (A1) (A1) (A2) (B2) (B2) (A1) (B2) (B2) (A1) (A1)
                 (B2) (A1) (B2) (B2) (B1) (A1) (A1) (B2) (B1) (B2)
                 (A1) (B2) (B1) (A1) (B2) (A2) (A1) (B2) (A1) (B1)
                 (A1) (B2) (A1) (A2) (A1) (A2) (B2) (A1) (B1) (B2)
                 (A2) (A1) (B1) (A1) (B2) (B1) (A1) (A1) (B2) (A2)
                 (B1) (A1) (B1) (A1) (B2) (B1) (A1) (A2) (B2) (A1)
                 (B1) (B2) (B2) (A2) (B2) (A1) (B2) (B1) (A1) (A2)
                 (B2) (A1) (B1) (A1) (A1) (B2) (A1) (B2) (B2) (A1)
                 (B1) (A1) (B2) (B1) (B2) (A2) (A1) (B2) (B2) (B1)
                 (A1) (B2) (A1) (A2) (B2) (A1) (B1) (A1) (B2) (B2)
                 (A1) (B2) (A1) (A2) (A2) (B2) (B1) (A1) (B2) (B1)
                 (B2) (A2) (A1) (B2) (B2) (B2) (A1) (A2) (B2) (A1)
                 (B2) (A1) (B1) (A2) (B2) (A1) (B1) (B2) (A1) (B2)
                 (A1) (A2) (B2) (A1) (B1) (A1) (A2) (A1) (A1) (B2)
                 (B2) (B1) (A1) (B2) (B1) (B2) (A1) (B2) (B2) (A1)
                 (B2) (A2) (B2) (B1) (B2) (B2) (A1) (B2) (B1) (B2)
                 (A2) (A1) (B2) (A1) (A2) (B2) (B2) (B1) (A1) (B2)
                 (A1) (B1) (B2) (A1) (A1) (B2) (A1) (A2) (A1) (A2)
                 (B2) (A1) (B2) (B1) (B1) (B2) (A2) (A1) (B2) (A2)
                 (B1) (A1) (A1) (B2) (A1) (A1) (A1) (B1) (B2) (A2)
                 (A1) (B2) (A1) (B2) (A1) (A2) (B1) (B2) (A1) (A1)
                 (A1) (B2) (A1) (A1) (B1) (A2) (B2) (A1) (A1) (A1)
                 (B2) (B2) (A1) (B1) (B2) (A1) (A1) (B2) (B1) (B2)
                 (A2) (B2) (A1) (A1) (B2) (A1) (B1) (B2) (A1) (A2)
                 (A1) (B1) (A2) (B2) (B1) (A1) (B2) (B2) (A1) (A2)
                 (A1) (A2) (B2) (B2) (A1) (B2) (B1) (A1) (A2) (B2)
                 (A1) (A2) (B2) (A1) (A1) (A2) (B1) (B2) (A1) (B1)
                 (A1) (B2) (A1) (A1) (B2) (A2) (B2) (A2) (B1) (B2)
                 (B1) (B1) (A1) (B1) (A2) (A1) (B2) (B1) (A1) (B2)
                 (A2) (B1) (B2) (A1) (B2) (A1) (B2) (B1) (A1) (B2)
                 (A2) (A1) (A2) (B2) (A1) (A1) (B1) (A1) (A2) (B2)
                 (A1) (B1) (B2) (B1) (A1) (B2) (B2) (A2) (B1) (B2)
                 (A2) (A1) (B2) (A1) (B2) (A1) (B1) (B2) (A2) (B2)
                 (B1) (A1) (B2) (A2) (A1) (B2) (B2) (B1) (A2) (A1)
                 (B2) (B2) (B1) (A1) (A2) (B2) (A1) (A1) (A2) (B2)
                 (A1) (B2) (B1) (A2) (A1) (B1) (A1) (B2) (A1) (A2)
                 (B1) (B2) (B2) (A1) (A1) (B2) (B2) (A2) (B1) (A1)
                 (B2) (A1) (A1) (B1) (A2) (B2) (A1) (A1) (A1) (B2)
                 (A2) (A1) (B2) (B2) (A2) (B2) (A1) (B1) (A2) (A1)
                 (A2) (A1) (B2) (B1) (A2) (B2) (A1) (B2) (B1) (B1)
                 (A2) (A2) (B1) (A1) (B2) (A1) (B2) (B1) (A1) (B2)
                 (A2) (B2) (B2) (B1) (A1) (B2) (B2) (A2) (B2) (B2)
                 (B1) (B1) (A1) (B2) (A1) (A2) (A2) (B2) (B1) (A2)
                 (A2) (B1) (A2) (A1) (B1) (A2) (A2) (A1) (A2) (A1)
                 (B2) (A1) (A2) (A1) (B2) (B1) (B1) (B2) (B1) (B1)
                 (A2) (A1) (B2) (A2) (A1) (B2) (B1) (A1) (A1) (B2)
                 (A1) (B1) (A2) (A1) (B2) (A1) (A1) (B2) (B1) (A1)
                 (A2) (A1) (B2) (A1) (B2) (A1) (A1) (B2) (B2) (A1)
                 (B2) (A1) (A1) (B2) (B2) (A1) (B2) (A1) (A2) (B2)
                 (B2) (A1) (A1) (A2) (B2) (A1) (A2) (A1) (B2) (B2)
                 (A2) (B2) (A2) (B1) (A1) (B2) (A1) (B2) (A1) (A1)
                 (B2) (B1) (A1) (B2) (A1) (B1) (A2) (A1) (B2) (A2)
                 (B1) (B1) (A1) (B1) (B2) (A1) (A1) (A1) (B2) (A2)
                 (A1) (B2) (A1) (B1) (B2) (B1) (B2) (A1) (B1) (A1)
                 (B2) (B2) (A1) (B2) (A1) (A1) (B1) (B2) (B2) (B1)
                 (A1) (B2) (A1) (B2) (A1) (A2) (A2) (A1) (B1) (B2)
                 (B1) (A1) (B2) (B1) (A2) (A1) (B2) (B1) (A1) (A2)
                 (A1) (B1) (B2) (B1) (B1) (A1) (B2) (A2) (A1) (A2)
                 (B2) (B1) (B2) (A1) (B2) (B1) (A1) (A2) (A1) (B2)
                 (B1) (A2) (B1) (A2) (A1) (A2) (B2) (B1) (B1) (B2)
                 (A1) (B1) (B2) (A1) (B2) (A1) (B2) (B1) (B2) (A2)
                 (A1) (A1) (A1) (A2) (A1) (B2) (B1) (A2) (A1) (A2)
                 (B1) (B2) (A2) (B2) (A1) (B2) (A1) (A1) (A2) (B2)
                 (B1) (B2) (A1) (B2) (A2) (B1) (A1) (B2) (B1) (B2)
                 (A2) (B1) (A1) (B2) (B1) (A1) (A1) (B2) (B1) (B1)
                 (B2) (B2) (B2) (A2) (A1) (B2) (A1) (B1) (B2) (A1)
                 (B1) (A1) (B2) (B1) (A2) (B1) (A2) (A1) (B2) (A2)
                 (B1) (A1) (B2) (B1) (B2) (B1) (B2) (A1) (A2) (A2)
                 (A2) (A1) (A1) (B1) (A1) (B2) (A1) (B1) (A1) (A2)
                 (A1) (A1) (B2) (B2) (A1) (B1) (A2) (A1) (B2) (A2)
                 (B2) (B1) (B2) (B1) (A1) (A1) (B1) (A2) (A1) (A1)
                 (B1) (B2) (A2) (A1) (B2) (B1) (A2) (B2) (A1) (B2)
                 (A2) (B1) (A2) (A2) (B2) (A1) (B1) (B1) (B1) (B2)
                 (A1) (A2) (B2) (A2) (A1) (B1) (B2) (A1) (A2) (A1)
                 (B2) (B1) (A1) (A2) (A1) (B2) (B1) (A1) (B2) (B2)
                 (B2) (A2) (A1) (B2) (B1) (A1) (B2) (A2) (B2) (A1)
                 (B2) (A1) (B1) (A2) (A2) (B2) (A1) (B1) (B2) (B2)
                 (A2) (A1) (B1) (B1) (B2) (A2) (A1) (B2) (A2) (B1)
                 (A1) (B2) (A2) (A1) (B1) (A2) (B2) (A1) (A2) (B1)
                 (A1) (A2) (B2) (B1) (B2) (A2) (B1) (A1) (B2) (B1)
                 (A1) (B2) (A2) (A2) (A1) (B2) (B1) (A1) (A1) (B2)
                 (A2) (B2) (A2) (A2) (A1) (B1) (A2) (A1) (B2) (A2)
                 (B2) (A1) (B2) (A1) (A2) (A1) (A2) (A2) (A1) (B2)
                 (B2) (B2) (B1) (A1) (B2) (B2) (A1) (B2) (A1) (B2)
                 (B1) (A1) (A2) (A1) (B2) (A2) (B2) (A1) (A2) (A1)
                 (B2) (A1) (B2) (B1) (B2) (A1) (B2) (B2) (A1) (B2)
                 (A1) (B2) (A1) (B2) (A1) (A1) (B2) (B2) (A1) (A1)
                 (B2) (B1) (A2) (A2) (B2) (B1) (B2) (A1) (B1) (B2)
                 (B1) (A2) (B2) (A1) (B2) (A2) (B1) (B2) (A2) (A1)
                 (A2) (B1) (B1) (A1) (B2) (B2) (B1) (A1) (A2) (B2)
                 (B1) (A1) (B1) (B2) (A2) (A1) (B2) (A1) (B1) (A1)
                 (A1) (A1) (A2) (B2) (B1) (A2) (A2) (B2) (B1) (A1)
                 (A1) (A1) (B2) (B1) (A1) (A2) (B2) (B2) (B1) (B1)
                 (A1) (A1) (A2) (B2) (B2) (A1) (B2) (A2) (A1) (A2)
                 (B2) (A2) (A1) (B2) (B2) (A1) (A2) (B2) (A1) (A1)
                 (A2) (B1) (B2) (A1) (B1) (A2) (B2) (A2) (A1) (B2)
                 (A1) (B2) (B2) (A1) (B2) (A1) (A2) (A2) (B2) (A1)
                 (B2) (B2) (A1) (B2) (A1) (B2) (A1) (A2) (A2) (B2)
                 (B2) (A1) (B2) (B2) (A1) (A2) (A2) (A1) (A1) (B2)
                 (A1) (A1) (A1) (B2) (B2) (B2) (A1) (A1) (B2) (A1)
                 (B2) (A1) (B2) (A1) (B2) (A1) (B2) (A1) (A1) (B2)
                 (A1) (B2) (B2) (A1) (B2) (B2) (A1) (B2) (A1) (B2)
                 (A1) (A1) (B2) (B2) (B2) (B2) (B2) (A1) (B2) (B2)
                 (B2) (B2) (B2) (B2) (A1) (B2) (B2) (B2) (B2) (B2)
                 (B2) (B2) (A1) (A1) (A1) (B2) (A1) (A1) (B2) (A1)
                 (A1) (B2) (A1) (A1) (A1) (B2) (B2) (A1) (B2) (A1)
                 (A1) (B2) (A1) (B2) (A1) (B2) (A1) (B2) (A1) (B2)
                 (B2) (B2) (B2) (A1) (B2) (B2) (B2) (B2)
 Beta  Orbitals:
       Occupied  (B2) (A1) (A1) (B2) (A1) (B2) (A1) (B2) (B2) (A1)
                 (A1) (B2) (B2) (A1) (B2) (A1) (B2) (A1) (B2) (A1)
                 (A1) (B2) (A1) (B2) (A1) (A1) (B2) (B2) (A1) (B2)
                 (B2) (A1) (A1) (B2) (A1) (B2) (A1) (A1) (A1) (B2)
                 (A1) (A1) (A1) (A1) (B2) (B2) (A1) (B2) (B2) (A1)
                 (B2) (A1) (B2) (B2) (A1) (B2) (A1) (A1) (B2) (A1)
                 (A1) (B2) (A1) (A1) (B2) (A1) (B2) (A1) (A1) (B2)
                 (A1) (A1) (A1) (B2) (A1) (B2) (B2) (A1) (A1) (B2)
                 (B2) (A1) (A1) (B2) (B2) (A1) (B2) (A1) (B2) (B1)
                 (B1) (B2) (B2) (A1) (B1) (B2) (A1) (B2) (A1) (A2)
                 (B1) (A1) (B2) (B1) (A1) (A1) (B1) (A2) (B1) (A2)
                 (A2) (B1) (A2) (B1) (A2) (A2) (B1) (A2)
       Virtual   (B1) (A2) (B1) (B1) (A2) (B1) (A2) (B1) (B1) (A2)
                 (B1) (A2) (A2) (B2) (A1) (A1) (B2) (A1) (B1) (A2)
                 (A1) (B2) (A1) (A1) (B2) (A2) (B2) (A1) (A1) (B2)
                 (A2) (A1) (A1) (B2) (A1) (B2) (A1) (B2) (A1) (B2)
                 (A1) (A1) (A2) (B2) (B2) (A1) (B2) (B2) (A1) (A1)
                 (B2) (A1) (B2) (B2) (B1) (A1) (A1) (B2) (B1) (B2)
                 (A1) (B2) (B1) (A1) (B2) (A2) (A1) (B2) (A1) (B1)
                 (A1) (B2) (A1) (A2) (A1) (A2) (B2) (A1) (B1) (B2)
                 (A2) (A1) (B1) (A1) (B2) (B1) (A1) (A1) (B2) (A2)
                 (B1) (A1) (B1) (A1) (B2) (B1) (A1) (A2) (B2) (A1)
                 (B1) (B2) (B2) (A2) (B2) (A1) (B2) (B1) (A1) (A2)
                 (B2) (A1) (B1) (A1) (A1) (B2) (A1) (B2) (B2) (A1)
                 (B1) (A1) (B2) (B1) (B2) (A2) (A1) (B2) (B2) (B1)
                 (A1) (B2) (A1) (A2) (B2) (A1) (B1) (A1) (B2) (B2)
                 (A1) (B2) (A1) (A2) (A2) (B2) (B1) (A1) (B2) (B1)
                 (B2) (A2) (A1) (B2) (B2) (B2) (A1) (A2) (B2) (A1)
                 (B2) (A1) (B1) (A2) (B2) (A1) (B1) (B2) (A1) (B2)
                 (A1) (A2) (B2) (A1) (B1) (A1) (A2) (A1) (A1) (B2)
                 (B2) (B1) (A1) (B2) (B1) (B2) (A1) (B2) (B2) (A1)
                 (B2) (A2) (B2) (B1) (B2) (B2) (A1) (B2) (B1) (B2)
                 (A2) (A1) (B2) (A1) (A2) (B2) (B2) (B1) (A1) (B2)
                 (A1) (B1) (B2) (A1) (A1) (B2) (A1) (A2) (A1) (A2)
                 (B2) (A1) (B2) (B1) (B1) (B2) (A2) (A1) (B2) (A2)
                 (B1) (A1) (A1) (B2) (A1) (A1) (A1) (B1) (B2) (A2)
                 (A1) (B2) (A1) (B2) (A1) (A2) (B1) (B2) (A1) (A1)
                 (A1) (B2) (A1) (A1) (B1) (A2) (B2) (A1) (A1) (A1)
                 (B2) (B2) (A1) (B1) (B2) (A1) (A1) (B2) (B1) (B2)
                 (A2) (B2) (A1) (A1) (B2) (A1) (B1) (B2) (A1) (A2)
                 (A1) (B1) (A2) (B2) (B1) (A1) (B2) (B2) (A1) (A2)
                 (A1) (A2) (B2) (B2) (A1) (B2) (B1) (A1) (A2) (B2)
                 (A1) (A2) (B2) (A1) (A1) (A2) (B1) (B2) (A1) (B1)
                 (A1) (B2) (A1) (A1) (B2) (A2) (B2) (A2) (B1) (B2)
                 (B1) (B1) (A1) (B1) (A2) (A1) (B2) (B1) (A1) (B2)
                 (A2) (B1) (B2) (A1) (B2) (A1) (B2) (B1) (A1) (B2)
                 (A2) (A1) (A2) (B2) (A1) (A1) (B1) (A1) (A2) (B2)
                 (A1) (B1) (B2) (B1) (A1) (B2) (B2) (A2) (B1) (B2)
                 (A2) (A1) (B2) (A1) (B2) (A1) (B1) (B2) (A2) (B2)
                 (B1) (A1) (B2) (A2) (A1) (B2) (B2) (B1) (A2) (A1)
                 (B2) (B2) (B1) (A1) (A2) (B2) (A1) (A1) (A2) (B2)
                 (A1) (B2) (B1) (A2) (A1) (B1) (A1) (B2) (A1) (A2)
                 (B1) (B2) (B2) (A1) (A1) (B2) (B2) (A2) (B1) (A1)
                 (B2) (A1) (A1) (B1) (A2) (B2) (A1) (A1) (A1) (B2)
                 (A2) (A1) (B2) (B2) (A2) (B2) (A1) (B1) (A2) (A1)
                 (A2) (A1) (B2) (B1) (A2) (B2) (A1) (B2) (B1) (B1)
                 (A2) (A2) (B1) (A1) (B2) (A1) (B2) (B1) (A1) (B2)
                 (A2) (B2) (B2) (B1) (A1) (B2) (B2) (A2) (B2) (B2)
                 (B1) (B1) (A1) (B2) (A1) (A2) (A2) (B2) (B1) (A2)
                 (A2) (B1) (A2) (A1) (B1) (A2) (A2) (A1) (A2) (A1)
                 (B2) (A1) (A2) (A1) (B2) (B1) (B1) (B2) (B1) (B1)
                 (A2) (A1) (B2) (A2) (A1) (B2) (B1) (A1) (A1) (B2)
                 (A1) (B1) (A2) (A1) (B2) (A1) (A1) (B2) (B1) (A1)
                 (A2) (A1) (B2) (A1) (B2) (A1) (A1) (B2) (B2) (A1)
                 (B2) (A1) (A1) (B2) (B2) (A1) (B2) (A1) (A2) (B2)
                 (B2) (A1) (A1) (A2) (B2) (A1) (A2) (A1) (B2) (B2)
                 (A2) (B2) (A2) (B1) (A1) (B2) (A1) (B2) (A1) (A1)
                 (B2) (B1) (A1) (B2) (A1) (B1) (A2) (A1) (B2) (A2)
                 (B1) (B1) (A1) (B1) (B2) (A1) (A1) (A1) (B2) (A2)
                 (A1) (B2) (A1) (B1) (B2) (B1) (B2) (A1) (B1) (A1)
                 (B2) (B2) (A1) (B2) (A1) (A1) (B1) (B2) (B2) (B1)
                 (A1) (B2) (A1) (B2) (A1) (A2) (A2) (A1) (B1) (B2)
                 (B1) (A1) (B2) (B1) (A2) (A1) (B2) (B1) (A1) (A2)
                 (A1) (B1) (B2) (B1) (B1) (A1) (B2) (A2) (A1) (A2)
                 (B2) (B1) (B2) (A1) (B2) (B1) (A1) (A2) (A1) (B2)
                 (B1) (A2) (B1) (A2) (A1) (A2) (B2) (B1) (B1) (B2)
                 (A1) (B1) (B2) (A1) (B2) (A1) (B2) (B1) (B2) (A2)
                 (A1) (A1) (A1) (A2) (A1) (B2) (B1) (A2) (A1) (A2)
                 (B1) (B2) (A2) (B2) (A1) (B2) (A1) (A1) (A2) (B2)
                 (B1) (B2) (A1) (B2) (A2) (B1) (A1) (B2) (B1) (B2)
                 (A2) (B1) (A1) (B2) (B1) (A1) (A1) (B2) (B1) (B1)
                 (B2) (B2) (B2) (A2) (A1) (B2) (A1) (B1) (B2) (A1)
                 (B1) (A1) (B2) (B1) (A2) (B1) (A2) (A1) (B2) (A2)
                 (B1) (A1) (B2) (B1) (B2) (B1) (B2) (A1) (A2) (A2)
                 (A2) (A1) (A1) (B1) (A1) (B2) (A1) (B1) (A1) (A2)
                 (A1) (A1) (B2) (B2) (A1) (B1) (A2) (A1) (B2) (A2)
                 (B2) (B1) (B2) (B1) (A1) (A1) (B1) (A2) (A1) (A1)
                 (B1) (B2) (A2) (A1) (B2) (B1) (A2) (B2) (A1) (B2)
                 (A2) (B1) (A2) (A2) (B2) (A1) (B1) (B1) (B1) (B2)
                 (A1) (A2) (B2) (A2) (A1) (B1) (B2) (A1) (A2) (A1)
                 (B2) (B1) (A1) (A2) (A1) (B2) (B1) (A1) (B2) (B2)
                 (B2) (A2) (A1) (B2) (B1) (A1) (B2) (A2) (B2) (A1)
                 (B2) (A1) (B1) (A2) (A2) (B2) (A1) (B1) (B2) (B2)
                 (A2) (A1) (B1) (B1) (B2) (A2) (A1) (B2) (A2) (B1)
                 (A1) (B2) (A2) (A1) (B1) (A2) (B2) (A1) (A2) (B1)
                 (A1) (A2) (B2) (B1) (B2) (A2) (B1) (A1) (B2) (B1)
                 (A1) (B2) (A2) (A2) (A1) (B2) (B1) (A1) (A1) (B2)
                 (A2) (B2) (A2) (A2) (A1) (B1) (A2) (A1) (B2) (A2)
                 (B2) (A1) (B2) (A1) (A2) (A1) (A2) (A2) (A1) (B2)
                 (B2) (B2) (B1) (A1) (B2) (B2) (A1) (B2) (A1) (B2)
                 (B1) (A1) (A2) (A1) (B2) (A2) (B2) (A1) (A2) (A1)
                 (B2) (A1) (B2) (B1) (B2) (A1) (B2) (B2) (A1) (B2)
                 (A1) (B2) (A1) (B2) (A1) (A1) (B2) (B2) (A1) (A1)
                 (B2) (B1) (A2) (A2) (B2) (B1) (B2) (A1) (B1) (B2)
                 (B1) (A2) (B2) (A1) (B2) (A2) (B1) (B2) (A2) (A1)
                 (A2) (B1) (B1) (A1) (B2) (B2) (B1) (A1) (A2) (B2)
                 (B1) (A1) (B1) (B2) (A2) (A1) (B2) (A1) (B1) (A1)
                 (A1) (A1) (A2) (B2) (B1) (A2) (A2) (B2) (B1) (A1)
                 (A1) (A1) (B2) (B1) (A1) (A2) (B2) (B2) (B1) (B1)
                 (A1) (A1) (A2) (B2) (B2) (A1) (B2) (A2) (A1) (A2)
                 (B2) (A2) (A1) (B2) (B2) (A1) (A2) (B2) (A1) (A1)
                 (A2) (B1) (B2) (A1) (B1) (A2) (B2) (A2) (A1) (B2)
                 (A1) (B2) (B2) (A1) (B2) (A1) (A2) (A2) (B2) (A1)
                 (B2) (B2) (A1) (B2) (A1) (B2) (A1) (A2) (A2) (B2)
                 (B2) (A1) (B2) (B2) (A1) (A2) (A2) (A1) (A1) (B2)
                 (A1) (A1) (A1) (B2) (B2) (B2) (A1) (A1) (B2) (A1)
                 (B2) (A1) (B2) (A1) (B2) (A1) (B2) (A1) (A1) (B2)
                 (A1) (B2) (B2) (A1) (B2) (B2) (A1) (B2) (A1) (B2)
                 (A1) (A1) (B2) (B2) (B2) (B2) (B2) (A1) (B2) (B2)
                 (B2) (B2) (B2) (B2) (A1) (B2) (B2) (B2) (B2) (B2)
                 (B2) (B2) (A1) (A1) (A1) (B2) (A1) (A1) (B2) (A1)
                 (A1) (B2) (A1) (A1) (A1) (B2) (B2) (A1) (B2) (A1)
                 (A1) (B2) (A1) (B2) (A1) (B2) (A1) (B2) (A1) (B2)
                 (B2) (B2) (B2) (A1) (B2) (B2) (B2) (B2)
 The electronic state of the initial guess is 1-A1.
 Initial guess <Sx>= 0.0000 <Sy>= 0.0000 <Sz>= 0.0000 <S**2>=-0.0000 S=-0.0000
 Leave Link  401 at Mon Feb  3 19:11:41 2020, MaxMem=  6710886400 cpu:             101.7 elap:               6.4
 (Enter /opt/ohpc/pub/libs/gaussian/g16-A.03/sandybridge/g16/l502.exe)
 Integral symmetry usage will be decided dynamically.
 UHF open shell SCF:
 Using DIIS extrapolation, IDIIS=  1040.
 NGot=  6710886400 LenX=  6706832232 LenY=  6704825760
 Requested convergence on RMS density matrix=1.00D-08 within 128 cycles.
 Requested convergence on MAX density matrix=1.00D-06.
 Requested convergence on             energy=1.00D-06.
 No special actions if energy rises.
 Fock matrices will be formed incrementally for  20 cycles.
 Integral accuracy reduced to 1.0D-05 until final iterations.

 Cycle   1  Pass 0  IDiag  1:
 FoFJK:  IHMeth= 1 ICntrl=       0 DoSepK=T KAlg= 0 I1Cent=           0 FoldK=F
 IRaf=         1 NMat=       1 IRICut=       1 DoRegI=T DoRafI=F ISym2E= 1 IDoP0=0 IntGTp=1.
 FoFCou: FMM=F IPFlag=           0 FMFlag=      100000 FMFlg1=           0
         NFxFlg=           0 DoJE=T BraDBF=F KetDBF=F FulRan=T
         wScrn=  0.000000 ICntrl=       500 IOpCl=  0 I1Cent=           0 NGrid=           0
         NMat0=    1 NMatS0=      1 NMatT0=    0 NMatD0=    1 NMtDS0=    0 NMtDT0=    0
 Petite list used in FoFCou.
 E= -1382.54946973207    
 DIIS: error= 2.05D-02 at cycle   1 NSaved=   1.
 NSaved= 1 IEnMin= 1 EnMin= -1382.54946973207     IErMin= 1 ErrMin= 2.05D-02
 ErrMax= 2.05D-02  0.00D+00 EMaxC= 1.00D-01 BMatC= 1.91D+00 BMatP= 1.91D+00
 IDIUse=3 WtCom= 7.95D-01 WtEn= 2.05D-01
 Coeff-Com:  0.100D+01
 Coeff-En:   0.100D+01
 Coeff:      0.100D+01
 Gap=     0.158 Goal=   None    Shift=    0.000
 Gap=     0.158 Goal=   None    Shift=    0.000
 GapD=    0.158 DampG=1.000 DampE=0.500 DampFc=0.5000 IDamp=-1.
 Damping current iteration by 5.00D-01
 RMSDP=4.01D+02 MaxDP=5.19D+04              OVMax= 9.95D-01

 Problem detected with inexpensive integrals.
 Switching to full accuracy and repeating last cycle.
 Cycle   2  Pass 1  IDiag  1:
 E= -1382.54976555577     Delta-E=       -0.000295823696 Rises=F Damp=F
 DIIS: error= 2.05D-02 at cycle   1 NSaved=   1.
 NSaved= 1 IEnMin= 1 EnMin= -1382.54976555577     IErMin= 1 ErrMin= 2.05D-02
 ErrMax= 2.05D-02  0.00D+00 EMaxC= 1.00D-01 BMatC= 1.89D+00 BMatP= 1.89D+00
 IDIUse=3 WtCom= 7.95D-01 WtEn= 2.05D-01
 Coeff-Com:  0.100D+01
 Coeff-En:   0.100D+01
 Coeff:      0.100D+01
 Gap=     0.158 Goal=   None    Shift=    0.000
 Gap=     0.158 Goal=   None    Shift=    0.000
 GapD=    0.158 DampG=1.000 DampE=0.500 DampFc=0.5000 IDamp=-1.
 Damping current iteration by 5.00D-01
 RMSDP=1.27D-03 MaxDP=4.47D-02 DE=-2.96D-04 OVMax= 1.22D-01

 Cycle   3  Pass 1  IDiag  1:
 RMSU=  6.15D-04    CP:  9.70D-01
 E= -1382.81125580912     Delta-E=       -0.261490253355 Rises=F Damp=T
 DIIS: error= 5.50D-03 at cycle   2 NSaved=   2.
 NSaved= 2 IEnMin= 2 EnMin= -1382.81125580912     IErMin= 2 ErrMin= 5.50D-03
 ErrMax= 5.50D-03  0.00D+00 EMaxC= 1.00D-01 BMatC= 1.19D-01 BMatP= 1.89D+00
 IDIUse=3 WtCom= 9.45D-01 WtEn= 5.50D-02
 Coeff-Com: -0.148D+00 0.115D+01
 Coeff-En:   0.000D+00 0.100D+01
 Coeff:     -0.140D+00 0.114D+01
 Gap=     0.163 Goal=   None    Shift=    0.000
 Gap=     0.163 Goal=   None    Shift=    0.000
 GapD=    0.163 DampG=1.000 DampE=1.000 DampFc=1.0000 IDamp=-1.
 RMSDP=5.00D-04 MaxDP=5.91D-02 DE=-2.61D-01 OVMax= 5.48D-02

 Cycle   4  Pass 1  IDiag  1:
 RMSU=  4.55D-04    CP:  9.31D-01  1.10D+00
 E= -1383.03823382838     Delta-E=       -0.226978019257 Rises=F Damp=F
 DIIS: error= 3.38D-03 at cycle   3 NSaved=   3.
 NSaved= 3 IEnMin= 3 EnMin= -1383.03823382838     IErMin= 3 ErrMin= 3.38D-03
 ErrMax= 3.38D-03  0.00D+00 EMaxC= 1.00D-01 BMatC= 3.97D-02 BMatP= 1.19D-01
 IDIUse=3 WtCom= 9.66D-01 WtEn= 3.38D-02
 Coeff-Com: -0.900D-01 0.449D+00 0.641D+00
 Coeff-En:   0.000D+00 0.000D+00 0.100D+01
 Coeff:     -0.870D-01 0.434D+00 0.653D+00
 Gap=     0.162 Goal=   None    Shift=    0.000
 Gap=     0.162 Goal=   None    Shift=    0.000
 RMSDP=1.32D-04 MaxDP=8.25D-03 DE=-2.27D-01 OVMax= 3.22D-02

 Cycle   5  Pass 1  IDiag  1:
 RMSU=  1.15D-04    CP:  9.37D-01  1.08D+00  8.77D-01
 E= -1383.04362217153     Delta-E=       -0.005388343150 Rises=F Damp=F
 DIIS: error= 2.92D-03 at cycle   4 NSaved=   4.
 NSaved= 4 IEnMin= 4 EnMin= -1383.04362217153     IErMin= 4 ErrMin= 2.92D-03
 ErrMax= 2.92D-03  0.00D+00 EMaxC= 1.00D-01 BMatC= 1.68D-02 BMatP= 3.97D-02
 IDIUse=3 WtCom= 9.71D-01 WtEn= 2.92D-02
 Coeff-Com: -0.344D-01 0.136D+00 0.410D+00 0.489D+00
 Coeff-En:   0.000D+00 0.000D+00 0.326D+00 0.674D+00
 Coeff:     -0.334D-01 0.132D+00 0.408D+00 0.494D+00
 Gap=     0.161 Goal=   None    Shift=    0.000
 Gap=     0.161 Goal=   None    Shift=    0.000
 RMSDP=5.08D-05 MaxDP=3.89D-03 DE=-5.39D-03 OVMax= 1.47D-02

 Cycle   6  Pass 1  IDiag  1:
 RMSU=  4.60D-05    CP:  9.38D-01  1.08D+00  8.74D-01  8.23D-01
 E= -1383.04783567422     Delta-E=       -0.004213502690 Rises=F Damp=F
 DIIS: error= 4.63D-04 at cycle   5 NSaved=   5.
 NSaved= 5 IEnMin= 5 EnMin= -1383.04783567422     IErMin= 5 ErrMin= 4.63D-04
 ErrMax= 4.63D-04  0.00D+00 EMaxC= 1.00D-01 BMatC= 5.29D-04 BMatP= 1.68D-02
 IDIUse=3 WtCom= 9.95D-01 WtEn= 4.63D-03
 Coeff-Com: -0.987D-02 0.360D-01 0.144D+00 0.229D+00 0.600D+00
 Coeff-En:   0.000D+00 0.000D+00 0.000D+00 0.000D+00 0.100D+01
 Coeff:     -0.983D-02 0.358D-01 0.144D+00 0.228D+00 0.602D+00
 Gap=     0.161 Goal=   None    Shift=    0.000
 Gap=     0.161 Goal=   None    Shift=    0.000
 RMSDP=1.66D-05 MaxDP=1.05D-03 DE=-4.21D-03 OVMax= 3.67D-03

 Cycle   7  Pass 1  IDiag  1:
 RMSU=  1.32D-05    CP:  9.39D-01  1.08D+00  8.89D-01  8.78D-01  1.00D+00
 E= -1383.04796346067     Delta-E=       -0.000127786447 Rises=F Damp=F
 DIIS: error= 1.96D-04 at cycle   6 NSaved=   6.
 NSaved= 6 IEnMin= 6 EnMin= -1383.04796346067     IErMin= 6 ErrMin= 1.96D-04
 ErrMax= 1.96D-04  0.00D+00 EMaxC= 1.00D-01 BMatC= 7.44D-05 BMatP= 5.29D-04
 IDIUse=3 WtCom= 9.98D-01 WtEn= 1.96D-03
 Coeff-Com: -0.142D-02 0.460D-02 0.336D-01 0.701D-01 0.323D+00 0.570D+00
 Coeff-En:   0.000D+00 0.000D+00 0.000D+00 0.000D+00 0.298D-01 0.970D+00
 Coeff:     -0.142D-02 0.459D-02 0.335D-01 0.699D-01 0.323D+00 0.571D+00
 Gap=     0.161 Goal=   None    Shift=    0.000
 Gap=     0.161 Goal=   None    Shift=    0.000
 RMSDP=5.20D-06 MaxDP=3.68D-04 DE=-1.28D-04 OVMax= 1.52D-03

 Cycle   8  Pass 1  IDiag  1:
 RMSU=  3.77D-06    CP:  9.39D-01  1.08D+00  8.90D-01  8.94D-01  1.06D+00
                    CP:  1.04D+00
 E= -1383.04798443579     Delta-E=       -0.000020975127 Rises=F Damp=F
 DIIS: error= 5.74D-05 at cycle   7 NSaved=   7.
 NSaved= 7 IEnMin= 7 EnMin= -1383.04798443579     IErMin= 7 ErrMin= 5.74D-05
 ErrMax= 5.74D-05  0.00D+00 EMaxC= 1.00D-01 BMatC= 2.67D-06 BMatP= 7.44D-05
 IDIUse=1 WtCom= 1.00D+00 WtEn= 0.00D+00
 Coeff-Com:  0.851D-03-0.316D-02-0.872D-02-0.995D-02 0.131D-01 0.127D+00
 Coeff-Com:  0.881D+00
 Coeff:      0.851D-03-0.316D-02-0.872D-02-0.995D-02 0.131D-01 0.127D+00
 Coeff:      0.881D+00
 Gap=     0.162 Goal=   None    Shift=    0.000
 Gap=     0.162 Goal=   None    Shift=    0.000
 RMSDP=3.54D-06 MaxDP=2.86D-04 DE=-2.10D-05 OVMax= 6.38D-04

 Cycle   9  Pass 1  IDiag  1:
 RMSU=  1.39D-06    CP:  9.39D-01  1.07D+00  8.90D-01  9.08D-01  1.10D+00
                    CP:  1.16D+00  1.19D+00
 E= -1383.04798611200     Delta-E=       -0.000001676208 Rises=F Damp=F
 DIIS: error= 2.17D-05 at cycle   8 NSaved=   8.
 NSaved= 8 IEnMin= 8 EnMin= -1383.04798611200     IErMin= 8 ErrMin= 2.17D-05
 ErrMax= 2.17D-05  0.00D+00 EMaxC= 1.00D-01 BMatC= 1.25D-06 BMatP= 2.67D-06
 IDIUse=1 WtCom= 1.00D+00 WtEn= 0.00D+00
 Coeff-Com:  0.674D-03-0.243D-02-0.993D-02-0.164D-01-0.419D-01-0.200D-01
 Coeff-Com:  0.476D+00 0.613D+00
 Coeff:      0.674D-03-0.243D-02-0.993D-02-0.164D-01-0.419D-01-0.200D-01
 Coeff:      0.476D+00 0.613D+00
 Gap=     0.162 Goal=   None    Shift=    0.000
 Gap=     0.162 Goal=   None    Shift=    0.000
 RMSDP=1.03D-06 MaxDP=7.96D-05 DE=-1.68D-06 OVMax= 2.91D-04

 Cycle  10  Pass 1  IDiag  1:
 RMSU=  4.81D-07    CP:  9.39D-01  1.07D+00  8.90D-01  9.11D-01  1.12D+00
                    CP:  1.19D+00  1.28D+00  1.09D+00
 E= -1383.04798658599     Delta-E=       -0.000000473992 Rises=F Damp=F
 DIIS: error= 9.66D-06 at cycle   9 NSaved=   9.
 NSaved= 9 IEnMin= 9 EnMin= -1383.04798658599     IErMin= 9 ErrMin= 9.66D-06
 ErrMax= 9.66D-06  0.00D+00 EMaxC= 1.00D-01 BMatC= 7.80D-08 BMatP= 1.25D-06
 IDIUse=1 WtCom= 1.00D+00 WtEn= 0.00D+00
 Coeff-Com:  0.677D-04-0.278D-03-0.170D-02-0.340D-02-0.129D-01-0.217D-01
 Coeff-Com:  0.219D-01 0.189D+00 0.828D+00
 Coeff:      0.677D-04-0.278D-03-0.170D-02-0.340D-02-0.129D-01-0.217D-01
 Coeff:      0.219D-01 0.189D+00 0.828D+00
 Gap=     0.162 Goal=   None    Shift=    0.000
 Gap=     0.162 Goal=   None    Shift=    0.000
 RMSDP=2.57D-07 MaxDP=8.99D-06 DE=-4.74D-07 OVMax= 1.15D-04

 Cycle  11  Pass 1  IDiag  1:
 RMSU=  2.19D-07    CP:  9.39D-01  1.07D+00  8.90D-01  9.11D-01  1.12D+00
                    CP:  1.20D+00  1.30D+00  1.15D+00  1.05D+00
 E= -1383.04798663163     Delta-E=       -0.000000045631 Rises=F Damp=F
 DIIS: error= 4.03D-06 at cycle  10 NSaved=  10.
 NSaved=10 IEnMin=10 EnMin= -1383.04798663163     IErMin=10 ErrMin= 4.03D-06
 ErrMax= 4.03D-06  0.00D+00 EMaxC= 1.00D-01 BMatC= 2.72D-08 BMatP= 7.80D-08
 IDIUse=1 WtCom= 1.00D+00 WtEn= 0.00D+00
 Coeff-Com: -0.792D-04 0.258D-03 0.731D-03 0.910D-03 0.415D-04-0.811D-02
 Coeff-Com: -0.678D-01 0.188D-02 0.449D+00 0.623D+00
 Coeff:     -0.792D-04 0.258D-03 0.731D-03 0.910D-03 0.415D-04-0.811D-02
 Coeff:     -0.678D-01 0.188D-02 0.449D+00 0.623D+00
 Gap=     0.162 Goal=   None    Shift=    0.000
 Gap=     0.162 Goal=   None    Shift=    0.000
 RMSDP=1.15D-07 MaxDP=7.85D-06 DE=-4.56D-08 OVMax= 4.32D-05

 Cycle  12  Pass 1  IDiag  1:
 RMSU=  7.80D-08    CP:  9.39D-01  1.07D+00  8.90D-01  9.11D-01  1.11D+00
                    CP:  1.19D+00  1.30D+00  1.17D+00  1.14D+00  1.10D+00
 E= -1383.04798664192     Delta-E=       -0.000000010297 Rises=F Damp=F
 DIIS: error= 1.18D-06 at cycle  11 NSaved=  11.
 NSaved=11 IEnMin=11 EnMin= -1383.04798664192     IErMin=11 ErrMin= 1.18D-06
 ErrMax= 1.18D-06  0.00D+00 EMaxC= 1.00D-01 BMatC= 1.92D-09 BMatP= 2.72D-08
 IDIUse=1 WtCom= 1.00D+00 WtEn= 0.00D+00
 Coeff-Com: -0.407D-04 0.139D-03 0.502D-03 0.805D-03 0.157D-02-0.304D-03
 Coeff-Com: -0.302D-01-0.237D-01 0.657D-01 0.240D+00 0.745D+00
 Coeff:     -0.407D-04 0.139D-03 0.502D-03 0.805D-03 0.157D-02-0.304D-03
 Coeff:     -0.302D-01-0.237D-01 0.657D-01 0.240D+00 0.745D+00
 Gap=     0.162 Goal=   None    Shift=    0.000
 Gap=     0.162 Goal=   None    Shift=    0.000
 RMSDP=6.09D-08 MaxDP=4.16D-06 DE=-1.03D-08 OVMax= 1.58D-05

 Cycle  13  Pass 1  IDiag  1:
 RMSU=  3.49D-08    CP:  9.39D-01  1.07D+00  8.90D-01  9.11D-01  1.11D+00
                    CP:  1.19D+00  1.30D+00  1.17D+00  1.15D+00  1.17D+00
                    CP:  1.19D+00
 E= -1383.04798664296     Delta-E=       -0.000000001035 Rises=F Damp=F
 DIIS: error= 6.08D-07 at cycle  12 NSaved=  12.
 NSaved=12 IEnMin=12 EnMin= -1383.04798664296     IErMin=12 ErrMin= 6.08D-07
 ErrMax= 6.08D-07  0.00D+00 EMaxC= 1.00D-01 BMatC= 3.07D-10 BMatP= 1.92D-09
 IDIUse=1 WtCom= 1.00D+00 WtEn= 0.00D+00
 Coeff-Com: -0.786D-05 0.279D-04 0.127D-03 0.235D-03 0.616D-03 0.717D-03
 Coeff-Com: -0.526D-02-0.950D-02-0.221D-01 0.264D-01 0.297D+00 0.712D+00
 Coeff:     -0.786D-05 0.279D-04 0.127D-03 0.235D-03 0.616D-03 0.717D-03
 Coeff:     -0.526D-02-0.950D-02-0.221D-01 0.264D-01 0.297D+00 0.712D+00
 Gap=     0.162 Goal=   None    Shift=    0.000
 Gap=     0.162 Goal=   None    Shift=    0.000
 RMSDP=2.35D-08 MaxDP=1.13D-06 DE=-1.04D-09 OVMax= 9.05D-06

 Cycle  14  Pass 1  IDiag  1:
 RMSU=  1.25D-08    CP:  9.39D-01  1.07D+00  8.90D-01  9.11D-01  1.11D+00
                    CP:  1.19D+00  1.30D+00  1.17D+00  1.16D+00  1.19D+00
                    CP:  1.29D+00  1.20D+00
 E= -1383.04798664322     Delta-E=       -0.000000000264 Rises=F Damp=F
 DIIS: error= 3.25D-07 at cycle  13 NSaved=  13.
 NSaved=13 IEnMin=13 EnMin= -1383.04798664322     IErMin=13 ErrMin= 3.25D-07
 ErrMax= 3.25D-07  0.00D+00 EMaxC= 1.00D-01 BMatC= 7.63D-11 BMatP= 3.07D-10
 IDIUse=1 WtCom= 1.00D+00 WtEn= 0.00D+00
 Coeff-Com:  0.846D-05-0.281D-04-0.928D-04-0.136D-03-0.196D-03 0.429D-03
 Coeff-Com:  0.674D-02 0.311D-02-0.278D-01-0.572D-01-0.845D-01 0.304D+00
 Coeff-Com:  0.855D+00
 Coeff:      0.846D-05-0.281D-04-0.928D-04-0.136D-03-0.196D-03 0.429D-03
 Coeff:      0.674D-02 0.311D-02-0.278D-01-0.572D-01-0.845D-01 0.304D+00
 Coeff:      0.855D+00
 Gap=     0.162 Goal=   None    Shift=    0.000
 Gap=     0.162 Goal=   None    Shift=    0.000
 RMSDP=1.44D-08 MaxDP=5.76D-07 DE=-2.64D-10 OVMax= 6.13D-06

 Cycle  15  Pass 1  IDiag  1:
 RMSU=  6.99D-09    CP:  9.39D-01  1.07D+00  8.90D-01  9.11D-01  1.11D+00
                    CP:  1.19D+00  1.30D+00  1.17D+00  1.15D+00  1.21D+00
                    CP:  1.36D+00  1.38D+00  1.25D+00
 E= -1383.04798664330     Delta-E=       -0.000000000076 Rises=F Damp=F
 DIIS: error= 1.14D-07 at cycle  14 NSaved=  14.
 NSaved=14 IEnMin=14 EnMin= -1383.04798664330     IErMin=14 ErrMin= 1.14D-07
 ErrMax= 1.14D-07  0.00D+00 EMaxC= 1.00D-01 BMatC= 1.04D-11 BMatP= 7.63D-11
 IDIUse=1 WtCom= 1.00D+00 WtEn= 0.00D+00
 Coeff-Com:  0.358D-05-0.120D-04-0.446D-04-0.751D-04-0.146D-03 0.229D-04
 Coeff-Com:  0.267D-02 0.234D-02-0.457D-02-0.201D-01-0.702D-01-0.381D-01
 Coeff-Com:  0.231D+00 0.897D+00
 Coeff:      0.358D-05-0.120D-04-0.446D-04-0.751D-04-0.146D-03 0.229D-04
 Coeff:      0.267D-02 0.234D-02-0.457D-02-0.201D-01-0.702D-01-0.381D-01
 Coeff:      0.231D+00 0.897D+00
 Gap=     0.162 Goal=   None    Shift=    0.000
 Gap=     0.162 Goal=   None    Shift=    0.000
 RMSDP=4.79D-09 MaxDP=2.25D-07 DE=-7.64D-11 OVMax= 3.13D-06

 SCF Done:  E(ULC-wHPBE) =  -1383.04798664     A.U. after   15 cycles
            NFock= 15  Conv=0.48D-08     -V/T= 2.0052
 <Sx>= 0.0000 <Sy>= 0.0000 <Sz>= 0.0000 <S**2>=-0.0000 S=-0.0000
 <L.S>= 0.000000000000E+00
 KE= 1.375946955447D+03 PE=-9.466850482015D+03 EE= 3.579470759037D+03
 Annihilation of the first spin contaminant:
 S**2 before annihilation    -0.0000,   after     0.0000
 Leave Link  502 at Mon Feb  3 19:39:44 2020, MaxMem=  6710886400 cpu:           26871.9 elap:            1683.6
 (Enter /opt/ohpc/pub/libs/gaussian/g16-A.03/sandybridge/g16/l801.exe)
 DoSCS=F DFT=T ScalE2(SS,OS)=  1.000000  1.000000
 ExpMin= 9.52D-02 ExpMax= 1.36D+04 ExpMxC= 4.63D+02 IAcc=3 IRadAn=         5 AccDes= 0.00D+00
 HarFok:  IExCor=  205 AccDes= 0.00D+00 IRadAn=         5 IDoV=-2 UseB2=F ITyADJ=14
 ICtDFT= 12500011 ScaDFX=  1.000000  1.000000  1.000000  1.000000
 GSVD:  LWork=       -1584 too small for GESVD, short by        7020 words or        7020 for optimal perf.
 Largest valence mixing into a core orbital is  4.97D-05
 Largest core mixing into a valence orbital is  1.72D-05
 Largest valence mixing into a core orbital is  4.97D-05
 Largest core mixing into a valence orbital is  1.72D-05
 Range of M.O.s used for correlation:    37  1236
 NBasis=  1236 NAE=   118 NBE=   118 NFC=    36 NFV=     0
 NROrb=   1200 NOA=    82 NOB=    82 NVA=  1118 NVB=  1118

 **** Warning!!: The largest alpha MO coefficient is  0.13876897D+03


 **** Warning!!: The largest beta MO coefficient is  0.13876897D+03

 Leave Link  801 at Mon Feb  3 19:39:46 2020, MaxMem=  6710886400 cpu:              11.9 elap:               0.8
 (Enter /opt/ohpc/pub/libs/gaussian/g16-A.03/sandybridge/g16/l914.exe)
 UHF ground state
 Two-electron integrals replicated using symmetry.
 MDV=  6710886400 DFT=T DoStab=F Mixed=T DoRPA=T DoScal=F NonHer=T
 Making orbital integer symmetry assigments:
 Orbital symmetries:
 Alpha Orbitals:
       Occupied  (A1) (B2) (B2) (A1) (A1) (A1) (B2) (B2) (A1) (B2)
                 (A1) (A1) (B2) (B2) (B2) (A1) (B2) (A1) (B2) (A1)
                 (B2) (A1) (B2) (A1) (A1) (B2) (A1) (A1) (B2) (B2)
                 (A1) (B2) (B2) (A1) (B2) (A1) (A1) (A1) (A1) (A1)
                 (B2) (A1) (A1) (B2) (A1) (B2) (A1) (B2) (B2) (A1)
                 (B2) (B2) (A1) (B2) (A1) (A1) (A1) (B2) (B2) (A1)
                 (A1) (A1) (B2) (A1) (B2) (A1) (B2) (A1) (A1) (B2)
                 (A1) (A1) (A1) (B2) (B2) (A1) (B2) (B2) (A1) (B2)
                 (A1) (B1) (B2) (A1) (B1) (B2) (A1) (B2) (A1) (B2)
                 (B1) (A1) (B2) (B1) (A2) (A1) (B2) (B2) (A1) (B1)
                 (A1) (B2) (A1) (B1) (A2) (A1) (B2) (A1) (A2) (B1)
                 (A2) (B1) (A2) (B1) (A2) (A2) (B1) (A2)
       Virtual   (B1) (A2) (B1) (B1) (A2) (B1) (A2) (B1) (B1) (B1)
                 (A2) (B2) (A1) (A2) (B2) (A1) (A1) (B2) (A1) (A1)
                 (B2) (A1) (B2) (A2) (B2) (A1) (A1) (A1) (A1) (B2)
                 (B1) (A1) (A2) (B2) (A1) (A2) (B2) (A1) (A2) (B2)
                 (A1) (A1) (B2) (B2) (B2) (A1) (A1) (B2) (B1) (B1)
                 (B2) (A1) (A2) (A1) (B2) (B1) (A1) (B2) (B1) (A2)
                 (B2) (A1) (B2) (A1) (A1) (B2) (B1) (B2) (A1) (A2)
                 (A1) (B2) (A2) (B1) (B2) (B2) (A1) (B2) (B1) (A2)
                 (B2) (A1) (A1) (A2) (A1) (B1) (A1) (A1) (A1) (B2)
                 (B1) (A2) (B1) (B2) (A1) (A1) (A1) (B1) (A1) (A2)
                 (A1) (A1) (B1) (A2) (B2) (B2) (B1) (A1) (B2) (A1)
                 (B2) (B2) (A1) (B2) (A2) (B1) (B2) (A1) (A1) (B1)
                 (B2) (A1) (B2) (B2) (A1) (A2) (B2) (A1) (B2) (A1)
                 (B2) (B2) (A1) (B1) (A1) (B2) (A2) (B2) (A1) (A2)
                 (A1) (B1) (B1) (A2) (A1) (B2) (B2) (A1) (A2) (B2)
                 (B1) (B2) (A1) (B2) (B2) (A2) (B2) (B1) (A1) (A1)
                 (B2) (B2) (A1) (A1) (B2) (B2) (A2) (B2) (B1) (A1)
                 (B2) (A2) (A1) (A1) (B1) (B2) (A1) (A1) (B2) (A1)
                 (B2) (B1) (B2) (A1) (B1) (A1) (B2) (B2) (A2) (A1)
                 (B2) (B2) (A2) (A1) (B2) (B2) (B1) (B2) (B1) (A1)
                 (B2) (A1) (B2) (B2) (B2) (A1) (A2) (A1) (A1) (B1)
                 (A1) (B2) (B1) (B2) (A1) (A1) (B2) (B2) (B2) (B2)
                 (A2) (A1) (B2) (A2) (B2) (A1) (B1) (A1) (A2) (B1)
                 (A1) (B2) (A2) (B2) (A1) (A1) (B1) (B2) (A1) (A1)
                 (B2) (A1) (B2) (A2) (B1) (A1) (A1) (A1) (B2) (A2)
                 (B1) (A1) (B2) (A1) (A1) (A1) (B2) (A1) (B2) (B1)
                 (A1) (A2) (A1) (B2) (A1) (B2) (B2) (B1) (A1) (B2)
                 (A1) (A1) (B2) (B1) (A2) (B2) (A1) (B2) (A1) (B1)
                 (B2) (A1) (A2) (A2) (B1) (A1) (B2) (B1) (B2) (A1)
                 (A1) (A2) (B2) (A2) (B2) (A1) (B2) (A1) (A2) (B1)
                 (A1) (B2) (A2) (A1) (B2) (A1) (A2) (B1) (A1) (B2)
                 (A1) (B2) (B1) (A1) (B2) (A1) (A2) (A2) (B2) (B1)
                 (B1) (A1) (B1) (B2) (B1) (A1) (A2) (A1) (B2) (B1)
                 (B2) (B2) (A1) (A2) (B1) (A1) (A1) (B2) (A1) (B1)
                 (B2) (A2) (B2) (A2) (A1) (A1) (B2) (A1) (A1) (A2)
                 (B1) (B2) (B2) (A1) (B2) (B1) (B1) (A1) (B2) (B2)
                 (B2) (A2) (A1) (A2) (B1) (B2) (A1) (B2) (A1) (B2)
                 (B1) (A2) (B2) (B1) (A2) (B2) (A1) (B2) (A1) (B1)
                 (B2) (A1) (A2) (B2) (A1) (A2) (B1) (B2) (B2) (A1)
                 (A1) (A1) (A2) (A2) (B1) (A1) (B2) (B1) (B2) (A1)
                 (B2) (A2) (B1) (A1) (B2) (A1) (B2) (B2) (A1) (A2)
                 (B1) (A1) (A1) (B1) (B2) (A2) (A1) (B2) (A2) (A1)
                 (B2) (A2) (B2) (A1) (A2) (B2) (B1) (A1) (A1) (A2)
                 (B2) (B1) (A1) (A1) (A2) (B2) (A2) (B1) (B1) (B2)
                 (A2) (A1) (B1) (B2) (A1) (B2) (A1) (B2) (B1) (A1)
                 (A2) (B2) (B2) (B2) (B1) (A1) (A2) (B2) (B2) (B1)
                 (B2) (B1) (A2) (B2) (A1) (A1) (A2) (B2) (B1) (A2)
                 (B1) (A2) (A2) (B1) (A1) (A2) (A2) (A2) (A1) (A1)
                 (A2) (B1) (B1) (B2) (A1) (A1) (B2) (B1) (B1) (B2)
                 (A2) (A2) (B2) (B1) (A1) (A1) (B2) (B1) (A1) (A2)
                 (B2) (A1) (A1) (A1) (B2) (A1) (B1) (A2) (B2) (A1)
                 (A1) (A1) (B2) (A1) (B2) (A1) (B2) (A1) (A1) (B2)
                 (A2) (A1) (B2) (A1) (A2) (A1) (B2) (B2) (B2) (B2)
                 (A2) (A1) (B2) (A1) (A1) (B2) (A2) (A1) (A2) (A1)
                 (B2) (B2) (B1) (B2) (A1) (A1) (B2) (A1) (B2) (A1)
                 (B1) (B2) (A1) (B2) (A2) (A1) (B1) (A2) (A1) (B2)
                 (B1) (B1) (A1) (B2) (A1) (B1) (A1) (A1) (B2) (B2)
                 (A1) (A2) (B2) (A1) (B2) (B1) (B1) (A1) (A1) (B1)
                 (B2) (B2) (A1) (B2) (A1) (A1) (B2) (B1) (B2) (A1)
                 (B2) (B2) (B1) (A1) (A1) (A2) (A2) (A1) (B1) (B2)
                 (A1) (B1) (B2) (B1) (A1) (B2) (A2) (A1) (B1) (A1)
                 (A2) (B2) (B1) (B1) (B2) (B1) (A1) (A2) (A1) (A2)
                 (B2) (B1) (B2) (B2) (A1) (B1) (A1) (A2) (A1) (B1)
                 (B2) (A2) (A2) (B1) (A2) (A1) (B2) (B1) (B1) (B2)
                 (B2) (A1) (B1) (A1) (A1) (B2) (B2) (B2) (B1) (A2)
                 (A1) (B2) (A1) (A1) (A1) (B1) (A2) (A1) (A2) (B2)
                 (A2) (B1) (B2) (A2) (A1) (B2) (A1) (A2) (A1) (B2)
                 (B1) (B2) (A1) (B2) (B1) (A2) (B1) (A1) (B2) (B1)
                 (A2) (B2) (A1) (B1) (B2) (A1) (B1) (B2) (A1) (B1)
                 (B2) (B2) (B2) (A2) (B1) (B2) (A1) (A1) (A1) (B2)
                 (B1) (B1) (B2) (A1) (A2) (B1) (A2) (B2) (A2) (B1)
                 (A1) (A1) (B1) (B2) (B1) (B2) (A2) (A2) (B2) (A2)
                 (A1) (A1) (B1) (A1) (A1) (B2) (B1) (A1) (A2) (A1)
                 (A1) (B2) (A1) (B2) (A1) (B1) (A2) (A1) (B2) (A2)
                 (B1) (B2) (B1) (B2) (A1) (A1) (B1) (A2) (A1) (B1)
                 (A1) (B2) (A2) (B2) (B1) (A2) (A1) (B2) (A1) (B2)
                 (A2) (B1) (A2) (A2) (B1) (B2) (A1) (B1) (B2) (B1)
                 (A2) (A1) (B2) (A2) (B1) (A1) (B2) (B2) (A2) (A1)
                 (A1) (B1) (A2) (A1) (B2) (A1) (B1) (B2) (B2) (A1)
                 (A2) (B2) (B2) (B1) (A1) (B2) (A1) (A2) (B2) (A2)
                 (A1) (B2) (B1) (A2) (B2) (A1) (B2) (B1) (A1) (B2)
                 (A2) (B1) (A1) (B1) (B2) (A2) (B2) (A2) (A1) (A1)
                 (A2) (B1) (B2) (A1) (B1) (A2) (B2) (A1) (A2) (A2)
                 (B1) (B2) (A1) (B1) (A2) (B2) (B1) (A1) (B1) (B2)
                 (B2) (A2) (A1) (A2) (A1) (B2) (B1) (A1) (B2) (A1)
                 (A2) (B2) (A2) (A1) (A2) (B1) (A2) (A1) (B2) (A2)
                 (B2) (A2) (B2) (A1) (A1) (A2) (A2) (A1) (B2) (A1)
                 (B2) (B2) (B1) (B2) (B2) (A1) (B2) (A1) (B2) (B1)
                 (A1) (A2) (A1) (A1) (B2) (A2) (B2) (A1) (A2) (A1)
                 (B2) (B2) (A1) (B1) (B2) (A1) (B2) (A1) (B2) (B2)
                 (A1) (B2) (B2) (A1) (A1) (B2) (A1) (B2) (A1) (B1)
                 (A1) (B2) (A2) (A2) (B1) (B2) (B2) (B1) (B1) (A1)
                 (B2) (A2) (B2) (A2) (B1) (B2) (A1) (A2) (B2) (A2)
                 (A1) (B1) (B1) (A1) (B1) (B2) (A2) (B2) (A1) (B1)
                 (B1) (B2) (A1) (A2) (B2) (A1) (B1) (B2) (A1) (A1)
                 (A2) (A2) (B1) (A1) (B2) (A1) (A2) (B1) (A1) (B2)
                 (A1) (B1) (B2) (A1) (A2) (A1) (B2) (B1) (B2) (B1)
                 (A2) (A1) (B2) (B2) (A1) (A2) (B2) (A1) (A2) (A1)
                 (A2) (B2) (A1) (B2) (A2) (B2) (A1) (A2) (A1) (B2)
                 (B1) (A1) (B2) (A2) (B1) (A2) (A1) (B2) (A1) (B2)
                 (B2) (A1) (A1) (B2) (A2) (B2) (A1) (A2) (B2) (A1)
                 (B2) (B2) (A1) (B2) (A1) (B2) (A2) (A2) (A1) (B2)
                 (A1) (B2) (B2) (A1) (A2) (B2) (A2) (A1) (A1) (B2)
                 (A1) (A1) (A1) (B2) (B2) (A1) (B2) (A1) (B2) (A1)
                 (B2) (A1) (B2) (A1) (B2) (A1) (B2) (A1) (A1) (B2)
                 (A1) (B2) (B2) (A1) (B2) (B2) (A1) (B2) (A1) (B2)
                 (A1) (B2) (A1) (B2) (B2) (B2) (B2) (A1) (B2) (B2)
                 (B2) (B2) (B2) (B2) (A1) (B2) (B2) (B2) (B2) (B2)
                 (B2) (B2) (A1) (A1) (A1) (B2) (A1) (A1) (B2) (A1)
                 (A1) (B2) (A1) (A1) (A1) (B2) (B2) (A1) (B2) (A1)
                 (A1) (B2) (A1) (A1) (B2) (B2) (A1) (B2) (A1) (B2)
                 (B2) (B2) (B2) (A1) (B2) (B2) (B2) (B2)
 Beta  Orbitals:
       Occupied  (A1) (B2) (B2) (A1) (A1) (A1) (B2) (B2) (A1) (B2)
                 (A1) (A1) (B2) (B2) (B2) (A1) (B2) (A1) (B2) (A1)
                 (B2) (A1) (B2) (A1) (A1) (B2) (A1) (A1) (B2) (B2)
                 (A1) (B2) (B2) (A1) (B2) (A1) (A1) (A1) (A1) (A1)
                 (B2) (A1) (A1) (B2) (A1) (B2) (A1) (B2) (B2) (A1)
                 (B2) (B2) (A1) (B2) (A1) (A1) (A1) (B2) (B2) (A1)
                 (A1) (A1) (B2) (A1) (B2) (A1) (B2) (A1) (A1) (B2)
                 (A1) (A1) (A1) (B2) (B2) (A1) (B2) (B2) (A1) (B2)
                 (A1) (B1) (B2) (A1) (B1) (B2) (A1) (B2) (A1) (B2)
                 (B1) (A1) (B2) (B1) (A2) (A1) (B2) (B2) (A1) (B1)
                 (A1) (B2) (A1) (B1) (A2) (A1) (B2) (A1) (A2) (B1)
                 (A2) (B1) (A2) (B1) (A2) (A2) (B1) (A2)
       Virtual   (B1) (A2) (B1) (B1) (A2) (B1) (A2) (B1) (B1) (B1)
                 (A2) (B2) (A1) (A2) (B2) (A1) (A1) (B2) (A1) (A1)
                 (B2) (A1) (B2) (A2) (B2) (A1) (A1) (A1) (A1) (B2)
                 (B1) (A1) (A2) (B2) (A1) (A2) (B2) (A1) (A2) (B2)
                 (A1) (A1) (B2) (B2) (B2) (A1) (A1) (B2) (B1) (B1)
                 (B2) (A1) (A2) (A1) (B2) (B1) (A1) (B2) (B1) (A2)
                 (B2) (A1) (B2) (A1) (A1) (B2) (B1) (B2) (A1) (A2)
                 (A1) (B2) (A2) (B1) (B2) (B2) (A1) (B2) (B1) (A2)
                 (B2) (A1) (A1) (A2) (A1) (B1) (A1) (A1) (A1) (B2)
                 (B1) (A2) (B1) (B2) (A1) (A1) (A1) (B1) (A1) (A2)
                 (A1) (A1) (B1) (A2) (B2) (B2) (B1) (A1) (B2) (A1)
                 (B2) (B2) (A1) (B2) (A2) (B1) (B2) (A1) (A1) (B1)
                 (B2) (A1) (B2) (B2) (A1) (A2) (B2) (A1) (B2) (A1)
                 (B2) (B2) (A1) (B1) (A1) (B2) (A2) (B2) (A1) (A2)
                 (A1) (B1) (B1) (A2) (A1) (B2) (B2) (A1) (A2) (B2)
                 (B1) (B2) (A1) (B2) (B2) (A2) (B2) (B1) (A1) (A1)
                 (B2) (B2) (A1) (A1) (B2) (B2) (A2) (B2) (B1) (A1)
                 (B2) (A2) (A1) (A1) (B1) (B2) (A1) (A1) (B2) (A1)
                 (B2) (B1) (B2) (A1) (B1) (A1) (B2) (B2) (A2) (A1)
                 (B2) (B2) (A2) (A1) (B2) (B2) (B1) (B2) (B1) (A1)
                 (B2) (A1) (B2) (B2) (B2) (A1) (A2) (A1) (A1) (B1)
                 (A1) (B2) (B1) (B2) (A1) (A1) (B2) (B2) (B2) (B2)
                 (A2) (A1) (B2) (A2) (B2) (A1) (B1) (A1) (A2) (B1)
                 (A1) (B2) (A2) (B2) (A1) (A1) (B1) (B2) (A1) (A1)
                 (B2) (A1) (B2) (A2) (B1) (A1) (A1) (A1) (B2) (A2)
                 (B1) (A1) (B2) (A1) (A1) (A1) (B2) (A1) (B2) (B1)
                 (A1) (A2) (A1) (B2) (A1) (B2) (B2) (B1) (A1) (B2)
                 (A1) (A1) (B2) (B1) (A2) (B2) (A1) (B2) (A1) (B1)
                 (B2) (A1) (A2) (A2) (B1) (A1) (B2) (B1) (B2) (A1)
                 (A1) (A2) (B2) (A2) (B2) (A1) (B2) (A1) (A2) (B1)
                 (A1) (B2) (A2) (A1) (B2) (A1) (A2) (B1) (A1) (B2)
                 (A1) (B2) (B1) (A1) (B2) (A1) (A2) (A2) (B2) (B1)
                 (B1) (A1) (B1) (B2) (B1) (A1) (A2) (A1) (B2) (B1)
                 (B2) (B2) (A1) (A2) (B1) (A1) (A1) (B2) (A1) (B1)
                 (B2) (A2) (B2) (A2) (A1) (A1) (B2) (A1) (A1) (A2)
                 (B1) (B2) (B2) (A1) (B2) (B1) (B1) (A1) (B2) (B2)
                 (B2) (A2) (A1) (A2) (B1) (B2) (A1) (B2) (A1) (B2)
                 (B1) (A2) (B2) (B1) (A2) (B2) (A1) (B2) (A1) (B1)
                 (B2) (A1) (A2) (B2) (A1) (A2) (B1) (B2) (B2) (A1)
                 (A1) (A1) (A2) (A2) (B1) (A1) (B2) (B1) (B2) (A1)
                 (B2) (A2) (B1) (A1) (B2) (A1) (B2) (B2) (A1) (A2)
                 (B1) (A1) (A1) (B1) (B2) (A2) (A1) (B2) (A2) (A1)
                 (B2) (A2) (B2) (A1) (A2) (B2) (B1) (A1) (A1) (A2)
                 (B2) (B1) (A1) (A1) (A2) (B2) (A2) (B1) (B1) (B2)
                 (A2) (A1) (B1) (B2) (A1) (B2) (A1) (B2) (B1) (A1)
                 (A2) (B2) (B2) (B2) (B1) (A1) (A2) (B2) (B2) (B1)
                 (B2) (B1) (A2) (B2) (A1) (A1) (A2) (B2) (B1) (A2)
                 (B1) (A2) (A2) (B1) (A1) (A2) (A2) (A2) (A1) (A1)
                 (A2) (B1) (B1) (B2) (A1) (A1) (B2) (B1) (B1) (B2)
                 (A2) (A2) (B2) (B1) (A1) (A1) (B2) (B1) (A1) (A2)
                 (B2) (A1) (A1) (A1) (B2) (A1) (B1) (A2) (B2) (A1)
                 (A1) (A1) (B2) (A1) (B2) (A1) (B2) (A1) (A1) (B2)
                 (A2) (A1) (B2) (A1) (A2) (A1) (B2) (B2) (B2) (B2)
                 (A2) (A1) (B2) (A1) (A1) (B2) (A2) (A1) (A2) (A1)
                 (B2) (B2) (B1) (B2) (A1) (A1) (B2) (A1) (B2) (A1)
                 (B1) (B2) (A1) (B2) (A2) (A1) (B1) (A2) (A1) (B2)
                 (B1) (B1) (A1) (B2) (A1) (B1) (A1) (A1) (B2) (B2)
                 (A1) (A2) (B2) (A1) (B2) (B1) (B1) (A1) (A1) (B1)
                 (B2) (B2) (A1) (B2) (A1) (A1) (B2) (B1) (B2) (A1)
                 (B2) (B2) (B1) (A1) (A1) (A2) (A2) (A1) (B1) (B2)
                 (A1) (B1) (B2) (B1) (A1) (B2) (A2) (A1) (B1) (A1)
                 (A2) (B2) (B1) (B1) (B2) (B1) (A1) (A2) (A1) (A2)
                 (B2) (B1) (B2) (B2) (A1) (B1) (A1) (A2) (A1) (B1)
                 (B2) (A2) (A2) (B1) (A2) (A1) (B2) (B1) (B1) (B2)
                 (B2) (A1) (B1) (A1) (A1) (B2) (B2) (B2) (B1) (A2)
                 (A1) (B2) (A1) (A1) (A1) (B1) (A2) (A1) (A2) (B2)
                 (A2) (B1) (B2) (A2) (A1) (B2) (A1) (A2) (A1) (B2)
                 (B1) (B2) (A1) (B2) (B1) (A2) (B1) (A1) (B2) (B1)
                 (A2) (B2) (A1) (B1) (B2) (A1) (B1) (B2) (A1) (B1)
                 (B2) (B2) (B2) (A2) (B1) (B2) (A1) (A1) (A1) (B2)
                 (B1) (B1) (B2) (A1) (A2) (B1) (A2) (B2) (A2) (B1)
                 (A1) (A1) (B1) (B2) (B1) (B2) (A2) (A2) (B2) (A2)
                 (A1) (A1) (B1) (A1) (A1) (B2) (B1) (A1) (A2) (A1)
                 (A1) (B2) (A1) (B2) (A1) (B1) (A2) (A1) (B2) (A2)
                 (B1) (B2) (B1) (B2) (A1) (A1) (B1) (A2) (A1) (B1)
                 (A1) (B2) (A2) (B2) (B1) (A2) (A1) (B2) (A1) (B2)
                 (A2) (B1) (A2) (A2) (B1) (B2) (A1) (B1) (B2) (B1)
                 (A2) (A1) (B2) (A2) (B1) (A1) (B2) (B2) (A2) (A1)
                 (A1) (B1) (A2) (A1) (B2) (A1) (B1) (B2) (B2) (A1)
                 (A2) (B2) (B2) (B1) (A1) (B2) (A1) (A2) (B2) (A2)
                 (A1) (B2) (B1) (A2) (B2) (A1) (B2) (B1) (A1) (B2)
                 (A2) (B1) (A1) (B1) (B2) (A2) (B2) (A2) (A1) (A1)
                 (A2) (B1) (B2) (A1) (B1) (A2) (B2) (A1) (A2) (A2)
                 (B1) (B2) (A1) (B1) (A2) (B2) (B1) (A1) (B1) (B2)
                 (B2) (A2) (A1) (A2) (A1) (B2) (B1) (A1) (B2) (A1)
                 (A2) (B2) (A2) (A1) (A2) (B1) (A2) (A1) (B2) (A2)
                 (B2) (A2) (B2) (A1) (A1) (A2) (A2) (A1) (B2) (A1)
                 (B2) (B2) (B1) (B2) (B2) (A1) (B2) (A1) (B2) (B1)
                 (A1) (A2) (A1) (A1) (B2) (A2) (B2) (A1) (A2) (A1)
                 (B2) (B2) (A1) (B1) (B2) (A1) (B2) (A1) (B2) (B2)
                 (A1) (B2) (B2) (A1) (A1) (B2) (A1) (B2) (A1) (B1)
                 (A1) (B2) (A2) (A2) (B1) (B2) (B2) (B1) (B1) (A1)
                 (B2) (A2) (B2) (A2) (B1) (B2) (A1) (A2) (B2) (A2)
                 (A1) (B1) (B1) (A1) (B1) (B2) (A2) (B2) (A1) (B1)
                 (B1) (B2) (A1) (A2) (B2) (A1) (B1) (B2) (A1) (A1)
                 (A2) (A2) (B1) (A1) (B2) (A1) (A2) (B1) (A1) (B2)
                 (A1) (B1) (B2) (A1) (A2) (A1) (B2) (B1) (B2) (B1)
                 (A2) (A1) (B2) (B2) (A1) (A2) (B2) (A1) (A2) (A1)
                 (A2) (B2) (A1) (B2) (A2) (B2) (A1) (A2) (A1) (B2)
                 (B1) (A1) (B2) (A2) (B1) (A2) (A1) (B2) (A1) (B2)
                 (B2) (A1) (A1) (B2) (A2) (B2) (A1) (A2) (B2) (A1)
                 (B2) (B2) (A1) (B2) (A1) (B2) (A2) (A2) (A1) (B2)
                 (A1) (B2) (B2) (A1) (A2) (B2) (A2) (A1) (A1) (B2)
                 (A1) (A1) (A1) (B2) (B2) (A1) (B2) (A1) (B2) (A1)
                 (B2) (A1) (B2) (A1) (B2) (A1) (B2) (A1) (A1) (B2)
                 (A1) (B2) (B2) (A1) (B2) (B2) (A1) (B2) (A1) (B2)
                 (A1) (B2) (A1) (B2) (B2) (B2) (B2) (A1) (B2) (B2)
                 (B2) (B2) (B2) (B2) (A1) (B2) (B2) (B2) (B2) (B2)
                 (B2) (B2) (A1) (A1) (A1) (B2) (A1) (A1) (B2) (A1)
                 (A1) (B2) (A1) (A1) (A1) (B2) (B2) (A1) (B2) (A1)
                 (A1) (B2) (A1) (A1) (B2) (B2) (A1) (B2) (A1) (B2)
                 (B2) (B2) (B2) (A1) (B2) (B2) (B2) (B2)
    80 initial guesses have been made.
 Convergence on wavefunction:    0.001000000000000
 Davidson Disk Diagonalization:  ConvIn= 1.00D-03 SkipCon=T Conv= 1.00D-03.
 Max sub-space:  2000 roots to seek:    80 dimension of matrix:       183352
 Iteration     1 Dimension    80 NMult     0 NNew     80
 CISAX will form    48 AO SS matrices at one time.
 NMat=    48 NSing=    48 JSym2X=-1.
 FoFJK:  IHMeth= 1 ICntrl=       0 DoSepK=T KAlg= 0 I1Cent=           0 FoldK=F
 IRaf=         1 NMat=      96 IRICut=       1 DoRegI=T DoRafI=F ISym2E=-1 IDoP0=3 IntGTp=3.
 FoFCou: FMM=F IPFlag=           0 FMFlag=      100000 FMFlg1=           0
         NFxFlg=           0 DoJE=F BraDBF=F KetDBF=F FulRan=T
         wScrn=  0.000000 ICntrl=       500 IOpCl=  0 I1Cent=           0 NGrid=           0
         NMat0=   48 NMatS0=     48 NMatT0=    0 NMatD0=   48 NMtDS0=    0 NMtDT0=    0
 Petite list used in FoFCou.
 NMat=    32 NSing=    32 JSym2X=-1.
 New state      1 was old state      2
 New state      2 was old state      8
 New state      3 was old state      1
 New state      4 was old state      3
 New state      5 was old state     29
 New state      6 was old state      5
 New state      7 was old state      4
 New state      8 was old state     19
 New state     10 was old state      7
 New state     11 was old state     15
 New state     12 was old state     18
 New state     13 was old state     10
 New state     14 was old state     47
 New state     15 was old state     16
 New state     16 was old state      6
 New state     17 was old state     36
 New state     18 was old state     13
 New state     19 was old state     11
 New state     20 was old state     12
 Excitation Energies [eV] at current iteration:
 Root      1 :     0.965510591770886
 Root      2 :     2.003073450512269
 Root      3 :     2.490622822543415
 Root      4 :     2.772080408373506
 Root      5 :     2.881407979885980
 Root      6 :     3.038194632666686
 Root      7 :     3.067887816565787
 Root      8 :     3.119672373270628
 Root      9 :     3.285534208542868
 Root     10 :     3.305410045700762
 Root     11 :     3.383540820060521
 Root     12 :     3.563596943995243
 Root     13 :     3.611491671718469
 Root     14 :     3.612369019263806
 Root     15 :     3.631012967179524
 Root     16 :     3.690627369772070
 Root     17 :     3.875616992165565
 Root     18 :     3.958005970372670
 Root     19 :     4.028387541944487
 Root     20 :     4.050960255712897
 Root     21 :     4.076942053172520
 Root     22 :     4.192162928932975
 Root     23 :     4.209597847640620
 Root     24 :     4.266646126432089
 Root     25 :     4.272159072038009
 Root     26 :     4.306633422499294
 Root     27 :     4.419998323009139
 Root     28 :     4.486404264458755
 Root     29 :     4.552090591677389
 Root     30 :     4.600967666505576
 Root     31 :     4.618725489519021
 Root     32 :     4.690205988097417
 Root     33 :     4.724400208331099
 Root     34 :     4.729772115463776
 Root     35 :     4.871892049903148
 Root     36 :     4.880107390959142
 Root     37 :     4.893706876902808
 Root     38 :     4.946217626912997
 Root     39 :     4.957744500385403
 Root     40 :     4.988054086163784
 Root     41 :     5.141960484293034
 Root     42 :     5.202815546066057
 Root     43 :     5.280595889369015
 Root     44 :     5.283775241098274
 Root     45 :     5.349096803857790
 Root     46 :     5.361176623156648
 Root     47 :     5.426909794839717
 Root     48 :     5.430767214729547
 Root     49 :     5.495115810226406
 Root     50 :     5.539147614023454
 Root     51 :     5.558320772593641
 Root     52 :     5.571865839625104
 Root     53 :     5.595730779367597
 Root     54 :     5.676377415742415
 Root     55 :     5.689925454735777
 Root     56 :     5.724504015775685
 Root     57 :     5.729742056161957
 Root     58 :     5.781124847403897
 Root     59 :     5.805140301444831
 Root     60 :     5.836816818706580
 Root     61 :     5.841732141865479
 Root     62 :     5.844113102043876
 Root     63 :     5.864834037742151
 Root     64 :     5.866558480760613
 Root     65 :     5.869562691423204
 Root     66 :     5.887333659875706
 Root     67 :     5.928975031293061
 Root     68 :     6.053647634128212
 Root     69 :     6.090883197598089
 Root     70 :     6.100800742272058
 Root     71 :     6.153712773367279
 Root     72 :     6.198898198067992
 Root     73 :     6.206705120463535
 Root     74 :     6.262959749154374
 Root     75 :     6.283000090458912
 Root     76 :     6.293704892477595
 Root     77 :     6.370061746616020
 Root     78 :     6.508485228876521
 Root     79 :     6.626291758129836
 Root     80 :     6.709497998460352
 Iteration     2 Dimension   120 NMult    80 NNew     40
 CISAX will form    40 AO SS matrices at one time.
 NMat=    40 NSing=    40 JSym2X=-1.
 Root      1 not converged, maximum delta is    0.215146130584281
 Root      2 not converged, maximum delta is    0.053959323587864
 Root      3 not converged, maximum delta is    0.065864364884050
 New state      4 was old state      5
 Root      4 not converged, maximum delta is    0.155168997829270
 New state      5 was old state      4
 Root      5 not converged, maximum delta is    0.087333366205360
 New state      6 was old state      8
 Root      6 not converged, maximum delta is    0.150545331802253
 New state      7 was old state      6
 Root      7 not converged, maximum delta is    0.096352707378962
 New state      8 was old state      7
 Root      8 not converged, maximum delta is    0.058598537098730
 New state      9 was old state     13
 Root      9 not converged, maximum delta is    0.209447695187380
 New state     10 was old state     11
 Root     10 not converged, maximum delta is    0.070889571521258
 New state     11 was old state      9
 Root     11 not converged, maximum delta is    0.040714383519714
 New state     12 was old state     10
 Root     12 not converged, maximum delta is    0.177831996749864
 New state     13 was old state     14
 Root     13 not converged, maximum delta is    0.095271429180287
 New state     14 was old state     12
 Root     14 not converged, maximum delta is    0.082552331992714
 Root     15 not converged, maximum delta is    0.201572265243765
 Root     16 not converged, maximum delta is    0.265070446113312
 New state     17 was old state     18
 Root     17 not converged, maximum delta is    0.287594640217842
 New state     18 was old state     17
 Root     18 not converged, maximum delta is    0.075121027892067
 Root     19 not converged, maximum delta is    0.306220196083626
 Root     20 not converged, maximum delta is    0.168366304750195
 Excitation Energies [eV] at current iteration:
 Root      1 :     0.565174028697012   Change is   -0.400336563073874
 Root      2 :     1.726458472123341   Change is   -0.276614978388928
 Root      3 :     1.913002318153543   Change is   -0.577620504389872
 Root      4 :     2.530217842789690   Change is   -0.351190137096290
 Root      5 :     2.556314492390370   Change is   -0.215765915983136
 Root      6 :     2.813593403348234   Change is   -0.306078969922395
 Root      7 :     2.860004173572390   Change is   -0.178190459094296
 Root      8 :     2.955543226552613   Change is   -0.112344590013174
 Root      9 :     2.962130906388031   Change is   -0.649360765330438
 Root     10 :     3.174029095041633   Change is   -0.209511725018888
 Root     11 :     3.204972672309121   Change is   -0.080561536233747
 Root     12 :     3.260385245294262   Change is   -0.045024800406501
 Root     13 :     3.366493112887186   Change is   -0.245875906376619
 Root     14 :     3.385095949524650   Change is   -0.178500994470593
 Root     15 :     3.417916528516367   Change is   -0.213096438663157
 Root     16 :     3.512967770360505   Change is   -0.177659599411565
 Root     17 :     3.624275923747918   Change is   -0.333730046624753
 Root     18 :     3.659664979839490   Change is   -0.215952012326075
 Root     19 :     3.827619340693102   Change is   -0.200768201251385
 Root     20 :     3.899845832066408   Change is   -0.151114423646489
 Iteration     3 Dimension   160 NMult   120 NNew     40
[...]
  Beta virt. eigenvalues --    2.96291   2.96614   2.96855   2.96918   2.96950
  Beta virt. eigenvalues --    2.98677   2.99049   2.99145   2.99324   2.99370
  Beta virt. eigenvalues --    2.99718   3.00564   3.01776   3.02045   3.02757
  Beta virt. eigenvalues --    3.02828   3.03022   3.03379   3.04098   3.04224
  Beta virt. eigenvalues --    3.04321   3.04649   3.04867   3.05247   3.05263
  Beta virt. eigenvalues --    3.05280   3.07060   3.07615   3.07656   3.08125
  Beta virt. eigenvalues --    3.08417   3.08988   3.09099   3.09147   3.09525
  Beta virt. eigenvalues --    3.09815   3.10389   3.10547   3.10651   3.10803
  Beta virt. eigenvalues --    3.11283   3.11553   3.12013   3.12153   3.13038
  Beta virt. eigenvalues --    3.13089   3.13639   3.14171   3.14408   3.14833
  Beta virt. eigenvalues --    3.15002   3.15874   3.15925   3.16427   3.16746
  Beta virt. eigenvalues --    3.17060   3.18118   3.18368   3.19479   3.19663
  Beta virt. eigenvalues --    3.19735   3.19962   3.20165   3.20472   3.20965
  Beta virt. eigenvalues --    3.21070   3.21233   3.22158   3.22787   3.23383
  Beta virt. eigenvalues --    3.23402   3.24019   3.24368   3.25547   3.25621
  Beta virt. eigenvalues --    3.25718   3.25911   3.26879   3.27488   3.27576
  Beta virt. eigenvalues --    3.27708   3.28211   3.28399   3.29366   3.30030
  Beta virt. eigenvalues --    3.30060   3.30335   3.30951   3.31072   3.31242
  Beta virt. eigenvalues --    3.31979   3.32496   3.32665   3.32763   3.33099
  Beta virt. eigenvalues --    3.33666   3.34289   3.34748   3.34813   3.34897
  Beta virt. eigenvalues --    3.35450   3.35876   3.36161   3.36480   3.36920
  Beta virt. eigenvalues --    3.36950   3.37472   3.38766   3.39417   3.39514
  Beta virt. eigenvalues --    3.40453   3.40519   3.41624   3.41636   3.41765
  Beta virt. eigenvalues --    3.42035   3.42350   3.42376   3.43531   3.44330
  Beta virt. eigenvalues --    3.44473   3.44519   3.44696   3.45488   3.45720
  Beta virt. eigenvalues --    3.45762   3.46161   3.46176   3.46608   3.46840
  Beta virt. eigenvalues --    3.47183   3.47481   3.47701   3.48405   3.48870
  Beta virt. eigenvalues --    3.48887   3.49808   3.50258   3.50475   3.51115
  Beta virt. eigenvalues --    3.51173   3.51348   3.51398   3.52277   3.53392
  Beta virt. eigenvalues --    3.53692   3.54180   3.55236   3.55410   3.56111
  Beta virt. eigenvalues --    3.56116   3.56495   3.56533   3.56745   3.57131
  Beta virt. eigenvalues --    3.57154   3.58012   3.58308   3.59507   3.59655
  Beta virt. eigenvalues --    3.60424   3.60868   3.61017   3.61281   3.61925
  Beta virt. eigenvalues --    3.62044   3.62643   3.63131   3.64818   3.65048
  Beta virt. eigenvalues --    3.65111   3.65370   3.65506   3.66349   3.66757
  Beta virt. eigenvalues --    3.67762   3.68001   3.68292   3.68968   3.70731
  Beta virt. eigenvalues --    3.73211   3.73739   3.74197   3.74290   3.74997
  Beta virt. eigenvalues --    3.75246   3.76246   3.77266   3.77569   3.78014
  Beta virt. eigenvalues --    3.78128   3.78403   3.78835   3.81034   3.81760
  Beta virt. eigenvalues --    3.81822   3.83414   3.83877   3.84523   3.84662
  Beta virt. eigenvalues --    3.85039   3.86511   3.86695   3.88124   3.88402
  Beta virt. eigenvalues --    3.88736   3.90225   3.90812   3.92284   3.93093
  Beta virt. eigenvalues --    3.93374   3.93736   3.93759   3.94868   3.95433
  Beta virt. eigenvalues --    3.96200   3.96499   3.98212   3.98347   3.98754
  Beta virt. eigenvalues --    4.00004   4.00327   4.01491   4.01765   4.02599
  Beta virt. eigenvalues --    4.03717   4.04175   4.04209   4.04730   4.04909
  Beta virt. eigenvalues --    4.05346   4.05598   4.06103   4.06271   4.07592
  Beta virt. eigenvalues --    4.08001   4.08952   4.09307   4.11148   4.11450
  Beta virt. eigenvalues --    4.11584   4.11686   4.12499   4.14399   4.14645
  Beta virt. eigenvalues --    4.14878   4.14900   4.16167   4.16773   4.17110
  Beta virt. eigenvalues --    4.17517   4.17625   4.18185   4.19731   4.20135
  Beta virt. eigenvalues --    4.20383   4.20446   4.20723   4.21607   4.22222
  Beta virt. eigenvalues --    4.22956   4.22966   4.23503   4.23933   4.24981
  Beta virt. eigenvalues --    4.25676   4.26489   4.26797   4.28003   4.28761
  Beta virt. eigenvalues --    4.29227   4.29856   4.29865   4.29953   4.30859
  Beta virt. eigenvalues --    4.30995   4.31320   4.32312   4.33736   4.33860
  Beta virt. eigenvalues --    4.34496   4.34989   4.35231   4.35478   4.36589
  Beta virt. eigenvalues --    4.38202   4.38320   4.39901   4.40532   4.40590
  Beta virt. eigenvalues --    4.41136   4.42552   4.42659   4.42899   4.43160
  Beta virt. eigenvalues --    4.45019   4.45960   4.46143   4.47047   4.48966
  Beta virt. eigenvalues --    4.49545   4.50319   4.51907   4.53313   4.53893
  Beta virt. eigenvalues --    4.56797   4.56950   4.58924   4.59658   4.59833
  Beta virt. eigenvalues --    4.60086   4.60878   4.61746   4.62057   4.62091
  Beta virt. eigenvalues --    4.63200   4.64417   4.64924   4.65815   4.66333
  Beta virt. eigenvalues --    4.70195   4.70583   4.72260   4.72375   4.73694
  Beta virt. eigenvalues --    4.74271   4.74467   4.75131   4.77590   4.78471
  Beta virt. eigenvalues --    4.79977   4.80816   4.82619   4.84702   4.85270
  Beta virt. eigenvalues --    4.86056   4.86495   4.86646   4.87115   4.90511
  Beta virt. eigenvalues --    4.92128   4.92381   4.94693   4.95163   4.95184
  Beta virt. eigenvalues --    4.95413   4.96534   4.99284   5.01745   5.03494
  Beta virt. eigenvalues --    5.04143   5.04866   5.06616   5.06803   5.07728
  Beta virt. eigenvalues --    5.10885   5.11262   5.12178   5.13885   5.14017
  Beta virt. eigenvalues --    5.16267   5.17528   5.18386   5.19109   5.20982
  Beta virt. eigenvalues --    5.22481   5.24089   5.24280   5.28689   5.31203
  Beta virt. eigenvalues --    5.34204   5.34456   5.37081   5.39031   5.41053
  Beta virt. eigenvalues --    5.41801   5.42724   5.45865   5.46753   5.47715
  Beta virt. eigenvalues --    5.49116   5.49640   5.50371   5.52933   5.59059
  Beta virt. eigenvalues --    5.62388   5.63998   5.64838   5.64850   5.66388
  Beta virt. eigenvalues --    5.71104   5.73979   5.75357   5.77770   5.78658
  Beta virt. eigenvalues --    5.84272   5.87925   5.92002   6.01617   6.04544
  Beta virt. eigenvalues --    6.20887   6.43074  21.59264  22.05331  22.39111
  Beta virt. eigenvalues --   22.40110  22.41904  22.43224  22.44173  22.48353
  Beta virt. eigenvalues --   22.53699  22.55166  22.56251  22.57328  22.60113
  Beta virt. eigenvalues --   22.63254  22.65799  22.65818  22.67719  22.67722
  Beta virt. eigenvalues --   22.70333  22.73291  22.76647  22.79330  22.79488
  Beta virt. eigenvalues --   22.86977  22.88197  22.90712  22.95626  23.01556
  Beta virt. eigenvalues --   23.03698  23.16244  23.20615  23.24496  23.34830
  Beta virt. eigenvalues --   23.52079  23.66630  24.03186
          Condensed to atoms (all electrons):
          Atomic-Atomic Spin Densities.
 Mulliken charges and spin densities:
               1          2
     1  C   -0.102357  -0.000000
     2  C   -0.168612  -0.000000
     3  C    0.059359   0.000000
     4  C   -0.015018  -0.000000
     5  C    0.192325   0.000000
     6  C   -0.187781   0.000000
     7  C    0.214542  -0.000000
     8  C   -0.015018  -0.000000
     9  C    0.059359   0.000000
    10  C    0.214542  -0.000000
    11  C   -0.168612  -0.000000
    12  H    0.077596   0.000000
    13  C   -0.102357  -0.000000
    14  C   -0.187781   0.000000
    15  C    0.192325   0.000000
    16  C   -0.205115  -0.000000
    17  C   -0.205115  -0.000000
    18  H    0.102785  -0.000000
    19  H    0.077596   0.000000
    20  H    0.099075  -0.000000
    21  H    0.102785  -0.000000
    22  H    0.099075  -0.000000
    23  C   -0.367104   0.000000
    24  C    0.293919  -0.000000
    25  C    0.293919  -0.000000
    26  C   -0.367104   0.000000
    27  H    0.076125  -0.000000
    28  H    0.076125  -0.000000
    29  C   -0.398952  -0.000000
    30  C    0.305567  -0.000000
    31  C    0.305567  -0.000000
    32  C   -0.398952  -0.000000
    33  H    0.086833  -0.000000
    34  H    0.086833  -0.000000
    35  C   -0.388380   0.000000
    36  C    0.284147  -0.000000
    37  C    0.284147  -0.000000
    38  C   -0.388380   0.000000
    39  H    0.087969   0.000000
    40  H    0.087969   0.000000
    41  C   -0.349777   0.000000
    42  C    0.232314   0.000000
    43  C    0.232314   0.000000
    44  C   -0.349777   0.000000
    45  H    0.097848  -0.000000
    46  H    0.088333   0.000000
    47  C   -0.230689  -0.000000
    48  C   -0.230689  -0.000000
    49  H    0.088333   0.000000
    50  C   -0.086057   0.000000
    51  C   -0.086057   0.000000
    52  H    0.097848  -0.000000
    53  H    0.106410  -0.000000
    54  H    0.106410  -0.000000
    55  H    0.094695  -0.000000
    56  H    0.094695  -0.000000
 Sum of Mulliken charges =  -0.00000  -0.00000
 Mulliken charges and spin densities with hydrogens summed into heavy atoms:
               1          2
     1  C    0.000428  -0.000000
     2  C   -0.091016  -0.000000
     3  C    0.059359   0.000000
     4  C   -0.015018  -0.000000
     5  C    0.192325   0.000000
     6  C   -0.088707  -0.000000
     7  C    0.214542  -0.000000
     8  C   -0.015018  -0.000000
     9  C    0.059359   0.000000
    10  C    0.214542  -0.000000
    11  C   -0.091016  -0.000000
    13  C    0.000428  -0.000000
    14  C   -0.088707  -0.000000
    15  C    0.192325   0.000000
    16  C   -0.110420  -0.000000
    17  C   -0.110420  -0.000000
    23  C   -0.290979   0.000000
    24  C    0.293919  -0.000000
    25  C    0.293919  -0.000000
    26  C   -0.290979   0.000000
    29  C   -0.312119  -0.000000
    30  C    0.305567  -0.000000
    31  C    0.305567  -0.000000
    32  C   -0.312119  -0.000000
    35  C   -0.300411   0.000000
    36  C    0.284147  -0.000000
    37  C    0.284147  -0.000000
    38  C   -0.300411   0.000000
    41  C   -0.261443   0.000000
    42  C    0.232314   0.000000
    43  C    0.232314   0.000000
    44  C   -0.261443   0.000000
    47  C   -0.132841  -0.000000
    48  C   -0.132841  -0.000000
    50  C    0.020353   0.000000
    51  C    0.020353   0.000000
 Electronic spatial extent (au):  <R**2>=          28292.8559
 Charge=             -0.0000 electrons
 Dipole moment (field-independent basis, Debye):
    X=              0.0000    Y=             -0.0000    Z=              0.0359  Tot=              0.0359
 Quadrupole moment (field-independent basis, Debye-Ang):
   XX=           -218.2145   YY=           -178.2718   ZZ=           -176.1772
   XY=              0.0000   XZ=              0.0000   YZ=             -0.0000
 Traceless Quadrupole moment (field-independent basis, Debye-Ang):
   XX=            -27.3266   YY=             12.6160   ZZ=             14.7106
   XY=              0.0000   XZ=              0.0000   YZ=             -0.0000
 Octapole moment (field-independent basis, Debye-Ang**2):
  XXX=              0.0000  YYY=             -0.0000  ZZZ=              9.5363  XYY=              0.0000
  XXY=              0.0000  XXZ=             -2.7613  XZZ=              0.0000  YZZ=             -0.0000
  YYZ=             -4.8990  XYZ=             -0.0000
 Hexadecapole moment (field-independent basis, Debye-Ang**3):
 XXXX=           -250.5689 YYYY=          -3414.5674 ZZZZ=         -32106.2509 XXXY=             -0.0000
 XXXZ=             -0.0000 YYYX=             -0.0000 YYYZ=              0.0000 ZZZX=              0.0000
 ZZZY=             -0.0000 XXYY=           -747.0825 XXZZ=          -6670.3996 YYZZ=          -5975.4599
 XXYZ=              0.0000 YYXZ=             -0.0000 ZZXY=             -0.0000
 N-N= 3.128384780888D+03 E-N=-9.466850482912D+03  KE= 1.375946955447D+03
 Symmetry A1   KE= 6.782204218311D+02
 Symmetry A2   KE= 1.834738104618D+01
 Symmetry B1   KE= 2.088026824502D+01
 Symmetry B2   KE= 6.584988843242D+02
 Symmetry A1   SP=-5.945018231320D-14
 Symmetry A2   SP=-1.105959531403D-14
 Symmetry B1   SP=-1.950944124405D-14
 Symmetry B2   SP=-6.844983806046D-15
 Leave Link  601 at Mon Feb  3 22:10:06 2020, MaxMem=  6710886400 cpu:             178.2 elap:              11.4
 (Enter /opt/ohpc/pub/libs/gaussian/g16-A.03/sandybridge/g16/l9999.exe)
 Electronic transition elements 
                 1             2             3             4             5 
      1  -0.138303D+04 -0.138299D+04 -0.138298D+04 -0.138296D+04 -0.138295D+04
      2   0.000000D+00  0.000000D+00  0.000000D+00  0.000000D+00  0.000000D+00
      3   0.000000D+00  0.000000D+00 -0.848598D+00  0.000000D+00  0.000000D+00
      4   0.000000D+00  0.000000D+00  0.000000D+00  0.000000D+00  0.000000D+00
      5   0.000000D+00  0.000000D+00  0.000000D+00  0.000000D+00  0.000000D+00
      6   0.000000D+00  0.000000D+00  0.633572D-01  0.000000D+00  0.000000D+00
      7   0.000000D+00  0.000000D+00  0.000000D+00  0.000000D+00  0.000000D+00
      8   0.000000D+00  0.000000D+00 -0.391111D+00  0.000000D+00  0.000000D+00
      9   0.000000D+00  0.000000D+00  0.000000D+00  0.000000D+00  0.000000D+00
     10   0.000000D+00  0.000000D+00  0.000000D+00  0.000000D+00  0.000000D+00
     11   0.000000D+00  0.000000D+00  0.000000D+00  0.000000D+00  0.000000D+00
     12   0.000000D+00  0.000000D+00  0.000000D+00  0.000000D+00  0.000000D+00
     13   0.000000D+00  0.000000D+00  0.000000D+00  0.000000D+00  0.000000D+00
     14   0.000000D+00  0.000000D+00  0.000000D+00  0.000000D+00  0.000000D+00
     15   0.000000D+00  0.000000D+00  0.000000D+00  0.000000D+00  0.000000D+00
     16   0.000000D+00  0.000000D+00  0.487172D+00  0.000000D+00  0.000000D+00
                 6             7             8             9            10 
      1  -0.138295D+04 -0.138294D+04 -0.138294D+04 -0.138294D+04 -0.138293D+04
      2   0.000000D+00  0.000000D+00  0.000000D+00  0.000000D+00  0.000000D+00
      3   0.000000D+00  0.000000D+00  0.195019D+00  0.000000D+00  0.000000D+00
      4   0.000000D+00  0.000000D+00  0.000000D+00  0.873601D+00  0.000000D+00
      5   0.000000D+00  0.000000D+00  0.000000D+00  0.000000D+00  0.000000D+00
      6   0.000000D+00  0.000000D+00 -0.230125D-01  0.000000D+00  0.000000D+00
      7   0.000000D+00  0.000000D+00  0.000000D+00 -0.936428D-01  0.000000D+00
      8   0.000000D+00  0.000000D+00  0.147689D+01  0.000000D+00  0.000000D+00
      9   0.000000D+00  0.000000D+00  0.000000D+00  0.000000D+00  0.000000D+00
     10   0.000000D+00  0.000000D+00  0.000000D+00  0.000000D+00  0.000000D+00
     11   0.000000D+00  0.000000D+00  0.000000D+00  0.219171D-02  0.000000D+00
     12   0.000000D+00  0.000000D+00  0.000000D+00  0.146769D+00  0.000000D+00
     13   0.000000D+00  0.000000D+00  0.000000D+00 -0.253707D+00  0.000000D+00
     14   0.000000D+00  0.000000D+00  0.000000D+00  0.000000D+00  0.000000D+00
     15   0.000000D+00  0.000000D+00  0.000000D+00  0.000000D+00  0.000000D+00
     16   0.000000D+00  0.000000D+00 -0.583289D+00  0.000000D+00  0.000000D+00
                11            12            13            14            15 
      1  -0.138293D+04 -0.138293D+04 -0.138293D+04 -0.138292D+04 -0.138292D+04
      2   0.000000D+00  0.000000D+00  0.000000D+00  0.000000D+00  0.000000D+00
      3   0.000000D+00  0.772107D-01  0.000000D+00  0.000000D+00  0.000000D+00
      4   0.000000D+00  0.000000D+00  0.000000D+00  0.000000D+00 -0.411895D+01
      5   0.000000D+00  0.000000D+00  0.000000D+00  0.000000D+00  0.000000D+00
      6   0.000000D+00 -0.966672D-02  0.000000D+00  0.000000D+00  0.000000D+00
      7   0.000000D+00  0.000000D+00  0.000000D+00  0.000000D+00  0.515853D+00
      8   0.000000D+00  0.794436D+00  0.000000D+00  0.000000D+00  0.000000D+00
      9   0.000000D+00  0.000000D+00  0.000000D+00  0.000000D+00  0.000000D+00
     10   0.000000D+00  0.000000D+00  0.000000D+00  0.000000D+00  0.000000D+00
     11   0.000000D+00  0.000000D+00  0.000000D+00  0.000000D+00  0.463852D-03
     12   0.000000D+00  0.000000D+00  0.000000D+00  0.000000D+00 -0.677529D+00
     13   0.000000D+00  0.000000D+00  0.000000D+00  0.000000D+00  0.675124D+00
     14   0.000000D+00  0.000000D+00  0.000000D+00  0.000000D+00  0.000000D+00
     15   0.000000D+00  0.000000D+00  0.000000D+00  0.000000D+00  0.000000D+00
     16   0.000000D+00 -0.150459D+00  0.000000D+00  0.000000D+00  0.000000D+00
                16            17            18            19            20 
      1  -0.138292D+04 -0.138292D+04 -0.138291D+04 -0.138291D+04 -0.138291D+04
      2   0.000000D+00  0.000000D+00  0.000000D+00  0.000000D+00  0.000000D+00
      3   0.000000D+00  0.000000D+00  0.000000D+00  0.592763D-01  0.000000D+00
      4   0.174695D+01  0.000000D+00  0.000000D+00  0.000000D+00  0.000000D+00
      5   0.000000D+00  0.000000D+00  0.000000D+00  0.000000D+00  0.000000D+00
      6   0.000000D+00  0.000000D+00  0.000000D+00 -0.774087D-02  0.000000D+00
      7  -0.224208D+00  0.000000D+00  0.000000D+00  0.000000D+00  0.000000D+00
      8   0.000000D+00  0.000000D+00  0.000000D+00 -0.211269D+00  0.000000D+00
      9   0.000000D+00  0.000000D+00  0.000000D+00  0.000000D+00  0.000000D+00
     10   0.000000D+00  0.000000D+00  0.000000D+00  0.000000D+00  0.000000D+00
     11  -0.417971D-02  0.000000D+00  0.000000D+00  0.000000D+00  0.000000D+00
     12   0.227541D+00  0.000000D+00  0.000000D+00  0.000000D+00  0.000000D+00
     13  -0.642140D+00  0.000000D+00  0.000000D+00  0.000000D+00  0.000000D+00
     14   0.000000D+00  0.000000D+00  0.000000D+00  0.000000D+00  0.000000D+00
     15   0.000000D+00  0.000000D+00  0.000000D+00  0.000000D+00  0.000000D+00
     16   0.000000D+00  0.000000D+00  0.000000D+00  0.823556D+00  0.000000D+00

 Test job not archived.
 1\1\GINC-CNODE055\SP\ULC-wHPBE TD-FC\def2TZVP\C36H20\QAI222\03-Feb-202
 0\0\\#P uLC-wHPBE/def2tzvp iop(3/107=0161000000, 3/108=0161000000) td(
 nstates=20)\\H20 C36\\0,1\C,0,0.,3.529252,-5.226204\C,0,0.,2.847992,-4
 .007334\C,0,0.,1.453012,-3.945056\C,0,0.,0.721066,-5.1638\C,0,0.,1.418
 993,-6.405345\C,0,0.,2.824824,-6.415414\C,0,0.,0.726073,-2.661671\C,0,
 0.,-0.721066,-5.1638\C,0,0.,-1.453012,-3.945056\C,0,0.,-0.726073,-2.66
 1671\C,0,0.,-2.847992,-4.007334\H,0,0.,-3.436577,-3.09185\C,0,0.,-3.52
 9252,-5.226204\C,0,0.,-2.824824,-6.415414\C,0,0.,-1.418993,-6.405345\C
 ,0,0.,-0.678068,-7.634202\C,0,0.,0.678068,-7.634202\H,0,0.,4.61978,-5.
 233145\H,0,0.,3.436577,-3.09185\H,0,0.,3.34787,-7.373243\H,0,0.,-4.619
 78,-5.233145\H,0,0.,-3.34787,-7.373243\C,0,0.,1.391198,-1.456686\C,0,0
 .,0.722186,-0.20057\C,0,0.,-0.722186,-0.20057\C,0,0.,-1.391198,-1.4566
 86\H,0,0.,2.480171,-1.428937\H,0,0.,-2.480171,-1.428937\C,0,0.,1.40701
 6,1.009849\C,0,0.,0.726417,2.246886\C,0,0.,-0.726417,2.246886\C,0,0.,-
 1.407016,1.009849\H,0,0.,2.499479,1.008359\H,0,0.,-2.499479,1.008359\C
 ,0,0.,1.406374,3.473726\C,0,0.,0.72585,4.697432\C,0,0.,-0.72585,4.6974
 32\C,0,0.,-1.406374,3.473726\H,0,0.,2.498767,3.474019\H,0,0.,-2.498767
 ,3.474019\C,0,0.,1.405798,5.938252\C,0,0.,0.725086,7.146768\C,0,0.,-0.
 725086,7.146768\C,0,0.,-1.405798,5.938252\H,0,0.,2.499954,8.407365\H,0
 ,0.,2.498305,5.939244\C,0,0.,1.40837,8.409181\C,0,0.,-1.40837,8.409181
 \H,0,0.,-2.498305,5.939244\C,0,0.,-0.715363,9.583582\C,0,0.,0.715363,9
 .583582\H,0,0.,-2.499954,8.407365\H,0,0.,-1.249426,10.534507\H,0,0.,1.
 249426,10.534507\H,0,0.,-1.2354,-8.572687\H,0,0.,1.2354,-8.572687\\Ver
 sion=EM64L-G16RevA.03\State=1-A1\HF=-1383.0479866\S2=0.\S2-1=0.\S2A=0.
 \RMSD=4.790e-09\PG=C02V [SGV(C36H20)]\\@


 THE WORLD IS MADE UP OF THE WILLS, THE WON'TS, AND THE CANT'S:
 THE WILLS DO EVERYTHING,
 THE WON'TS DO NOTHING,
 THE CAN'TS CAN'T DO ANYTHING.

                               -- FROM WALT DISNEY'S "BLACK HOLE"
 Job cpu time:       1 days 23 hours 22 minutes 41.5 seconds.
 Elapsed time:       0 days  2 hours 58 minutes 49.7 seconds.
 File lengths (MBytes):  RWF=  11024 Int=      0 D2E=      0 Chk=   1088 Scr=     32
 Normal termination of Gaussian 16 at Mon Feb  3 22:10:08 2020.
